 running on   44 total cores
 distrk:  each k-point on   44 cores,    1 groups
 distr:  one band on   11 cores,    4 groups
 using from now: INCAR     
 vasp.5.4.1 05Feb16 (build Sep 29 2017 10:38:24) complex                        
  
 POSCAR found type information on POSCAR  Al
 POSCAR found :  1 types and       4 ions
 scaLAPACK will be used
 LDA part: xc-table for Pade appr. of Perdew
 found WAVECAR, reading the header
  number of bands has changed, file:    12 present:    24
  trying to continue reading WAVECAR, but it might fail
 WAVECAR: different cutoff or change in lattice found
 POSCAR, INCAR and KPOINTS ok, starting setup
 WARNING: small aliasing (wrap around) errors must be expected
 FFT: planning ...
 reading WAVECAR
 random initialization beyond band           13
 the WAVECAR file was read successfully
 No down-spin wavefunctions found --> setting down-spin equal up-spin ...
 charge-density read from file: Al_225                                  
 magnetization density of overlapping atoms calculated
 entering main loop
       N       E                     dE             d eps       ncg     rms          rms(c)
DAV:   1    -0.141174136954E+02   -0.14117E+02   -0.60468E-02 27496   0.130E+00    0.384E+00
DAV:   2    -0.149886270096E+02   -0.87121E+00   -0.60268E-02 33168   0.135E+00    0.638E-01
DAV:   3    -0.150112083684E+02   -0.22581E-01   -0.16747E-02 36296   0.470E-01    0.229E-01
DAV:   4    -0.150102990087E+02    0.90936E-03   -0.79264E-04 31856   0.105E-01    0.321E-02
DAV:   5    -0.150102816159E+02    0.17393E-04   -0.20724E-05 35432   0.181E-02    0.843E-03
DAV:   6    -0.150102809664E+02    0.64947E-06   -0.10950E-06 31960   0.526E-03    0.463E-03
DAV:   7    -0.150102804435E+02    0.52288E-06   -0.18333E-07 35616   0.255E-03    0.143E-03
DAV:   8    -0.150102804537E+02   -0.10198E-07   -0.20517E-08 32536   0.770E-04    0.187E-04
DAV:   9    -0.150102804805E+02   -0.26732E-07   -0.26555E-09 27936   0.299E-04    0.967E-05
DAV:  10    -0.150102805155E+02   -0.35064E-07   -0.15631E-10 23008   0.800E-05    0.361E-05
DAV:  11    -0.150102805199E+02   -0.43479E-08   -0.52411E-11 23112   0.301E-05
   1 F= -.15010281E+02 E0= -.14983193E+02  d E =-.541746E-01  mag=    -0.0000
 writing wavefunctions
