   4   4   0   0
  0.1649350E+02  0.4040709E-09  0.4040709E-09  0.4040709E-09  0.5000000E-15
  1.000000000000000E-004
  CAR 
 Al_225                                  
     28.48865420     -4.63800716  301      7.00445773      1.00000000
     -4.638  0.0000E+00  0.0000E+00  0.0000E+00  0.0000E+00
     -4.528  0.0000E+00  0.0000E+00  0.0000E+00  0.0000E+00
     -4.417  0.0000E+00  0.0000E+00  0.0000E+00  0.0000E+00
     -4.307  0.0000E+00  0.0000E+00  0.0000E+00  0.0000E+00
     -4.196  0.0000E+00  0.0000E+00  0.0000E+00  0.0000E+00
     -4.086  0.0000E+00  0.0000E+00  0.0000E+00  0.0000E+00
     -3.975  0.1169E-03  0.1169E-03  0.1291E-04  0.1291E-04
     -3.865  0.3074E-03  0.3074E-03  0.4685E-04  0.4685E-04
     -3.755  0.9144E-03  0.9144E-03  0.1478E-03  0.1478E-03
     -3.644  0.2733E-02  0.2733E-02  0.4496E-03  0.4496E-03
     -3.534  0.8146E-02  0.8146E-02  0.1349E-02  0.1349E-02
     -3.423  0.2376E-01  0.2376E-01  0.3972E-02  0.3972E-02
     -3.313  0.6506E-01  0.6506E-01  0.1116E-01  0.1116E-01
     -3.203  0.1527E+00  0.1527E+00  0.2802E-01  0.2802E-01
     -3.092  0.2674E+00  0.2674E+00  0.5755E-01  0.5755E-01
     -2.982  0.3255E+00  0.3255E+00  0.9349E-01  0.9349E-01
     -2.871  0.3033E+00  0.3033E+00  0.1270E+00  0.1270E+00
     -2.761  0.2556E+00  0.2556E+00  0.1552E+00  0.1552E+00
     -2.650  0.2156E+00  0.2156E+00  0.1790E+00  0.1790E+00
     -2.540  0.1874E+00  0.1874E+00  0.1997E+00  0.1997E+00
     -2.430  0.1676E+00  0.1676E+00  0.2182E+00  0.2182E+00
     -2.319  0.1529E+00  0.1529E+00  0.2351E+00  0.2351E+00
     -2.209  0.1418E+00  0.1418E+00  0.2508E+00  0.2508E+00
     -2.098  0.1330E+00  0.1330E+00  0.2655E+00  0.2655E+00
     -1.988  0.1258E+00  0.1258E+00  0.2794E+00  0.2794E+00
     -1.877  0.1197E+00  0.1197E+00  0.2927E+00  0.2927E+00
     -1.767  0.1145E+00  0.1145E+00  0.3053E+00  0.3053E+00
     -1.657  0.1102E+00  0.1102E+00  0.3175E+00  0.3175E+00
     -1.546  0.1069E+00  0.1069E+00  0.3293E+00  0.3293E+00
     -1.436  0.1055E+00  0.1055E+00  0.3410E+00  0.3410E+00
     -1.325  0.1090E+00  0.1090E+00  0.3530E+00  0.3530E+00
     -1.215  0.1259E+00  0.1259E+00  0.3669E+00  0.3669E+00
     -1.104  0.1778E+00  0.1778E+00  0.3866E+00  0.3866E+00
     -0.994  0.3037E+00  0.3037E+00  0.4201E+00  0.4201E+00
     -0.884  0.5083E+00  0.5083E+00  0.4762E+00  0.4762E+00
     -0.773  0.6653E+00  0.6653E+00  0.5497E+00  0.5497E+00
     -0.663  0.6639E+00  0.6639E+00  0.6230E+00  0.6230E+00
     -0.552  0.5785E+00  0.5785E+00  0.6869E+00  0.6869E+00
     -0.442  0.4952E+00  0.4952E+00  0.7416E+00  0.7416E+00
     -0.332  0.4347E+00  0.4347E+00  0.7896E+00  0.7896E+00
     -0.221  0.3923E+00  0.3923E+00  0.8329E+00  0.8329E+00
     -0.111  0.3617E+00  0.3617E+00  0.8729E+00  0.8729E+00
     -0.000  0.3379E+00  0.3379E+00  0.9103E+00  0.9103E+00
      0.110  0.3194E+00  0.3194E+00  0.9456E+00  0.9456E+00
      0.221  0.3042E+00  0.3042E+00  0.9792E+00  0.9792E+00
      0.331  0.2914E+00  0.2914E+00  0.1011E+01  0.1011E+01
      0.441  0.2802E+00  0.2802E+00  0.1042E+01  0.1042E+01
      0.552  0.2705E+00  0.2705E+00  0.1072E+01  0.1072E+01
      0.662  0.2618E+00  0.2618E+00  0.1101E+01  0.1101E+01
      0.773  0.2540E+00  0.2540E+00  0.1129E+01  0.1129E+01
      0.883  0.2470E+00  0.2470E+00  0.1157E+01  0.1157E+01
      0.994  0.2407E+00  0.2407E+00  0.1183E+01  0.1183E+01
      1.104  0.2348E+00  0.2348E+00  0.1209E+01  0.1209E+01
      1.214  0.2293E+00  0.2293E+00  0.1234E+01  0.1234E+01
      1.325  0.2244E+00  0.2244E+00  0.1259E+01  0.1259E+01
      1.435  0.2197E+00  0.2197E+00  0.1284E+01  0.1284E+01
      1.546  0.2153E+00  0.2153E+00  0.1307E+01  0.1307E+01
      1.656  0.2113E+00  0.2113E+00  0.1331E+01  0.1331E+01
      1.766  0.2075E+00  0.2075E+00  0.1354E+01  0.1354E+01
      1.877  0.2040E+00  0.2040E+00  0.1376E+01  0.1376E+01
      1.987  0.2010E+00  0.2010E+00  0.1398E+01  0.1398E+01
      2.098  0.1985E+00  0.1985E+00  0.1420E+01  0.1420E+01
      2.208  0.1975E+00  0.1975E+00  0.1442E+01  0.1442E+01
      2.319  0.2010E+00  0.2010E+00  0.1464E+01  0.1464E+01
      2.429  0.2167E+00  0.2167E+00  0.1488E+01  0.1488E+01
      2.539  0.2659E+00  0.2659E+00  0.1518E+01  0.1518E+01
      2.650  0.3915E+00  0.3915E+00  0.1561E+01  0.1561E+01
      2.760  0.6229E+00  0.6229E+00  0.1630E+01  0.1630E+01
      2.871  0.8522E+00  0.8522E+00  0.1724E+01  0.1724E+01
      2.981  0.9143E+00  0.9143E+00  0.1825E+01  0.1825E+01
      3.092  0.8613E+00  0.8613E+00  0.1920E+01  0.1920E+01
      3.202  0.8382E+00  0.8382E+00  0.2012E+01  0.2012E+01
      3.312  0.9316E+00  0.9316E+00  0.2115E+01  0.2115E+01
      3.423  0.1142E+01  0.1142E+01  0.2241E+01  0.2241E+01
      3.533  0.1364E+01  0.1364E+01  0.2392E+01  0.2392E+01
      3.644  0.1537E+01  0.1537E+01  0.2562E+01  0.2562E+01
      3.754  0.1590E+01  0.1590E+01  0.2737E+01  0.2737E+01
      3.865  0.1475E+01  0.1475E+01  0.2900E+01  0.2900E+01
      3.975  0.1307E+01  0.1307E+01  0.3045E+01  0.3045E+01
      4.085  0.1168E+01  0.1168E+01  0.3174E+01  0.3174E+01
      4.196  0.1069E+01  0.1069E+01  0.3292E+01  0.3292E+01
      4.306  0.9972E+00  0.9972E+00  0.3402E+01  0.3402E+01
      4.417  0.9450E+00  0.9450E+00  0.3507E+01  0.3507E+01
      4.527  0.9063E+00  0.9063E+00  0.3607E+01  0.3607E+01
      4.637  0.8819E+00  0.8819E+00  0.3704E+01  0.3704E+01
      4.748  0.8768E+00  0.8768E+00  0.3801E+01  0.3801E+01
      4.858  0.9064E+00  0.9064E+00  0.3901E+01  0.3901E+01
      4.969  0.9917E+00  0.9917E+00  0.4011E+01  0.4011E+01
      5.079  0.1112E+01  0.1112E+01  0.4134E+01  0.4134E+01
      5.190  0.1156E+01  0.1156E+01  0.4262E+01  0.4262E+01
      5.300  0.1075E+01  0.1075E+01  0.4380E+01  0.4380E+01
      5.410  0.9593E+00  0.9593E+00  0.4486E+01  0.4486E+01
      5.521  0.8703E+00  0.8703E+00  0.4582E+01  0.4582E+01
      5.631  0.8099E+00  0.8099E+00  0.4672E+01  0.4672E+01
      5.742  0.7689E+00  0.7689E+00  0.4757E+01  0.4757E+01
      5.852  0.7403E+00  0.7403E+00  0.4839E+01  0.4839E+01
      5.963  0.7228E+00  0.7228E+00  0.4919E+01  0.4919E+01
      6.073  0.7236E+00  0.7236E+00  0.4999E+01  0.4999E+01
      6.183  0.7628E+00  0.7628E+00  0.5083E+01  0.5083E+01
      6.294  0.8787E+00  0.8787E+00  0.5180E+01  0.5180E+01
      6.404  0.1077E+01  0.1077E+01  0.5299E+01  0.5299E+01
      6.515  0.1235E+01  0.1235E+01  0.5435E+01  0.5435E+01
      6.625  0.1242E+01  0.1242E+01  0.5573E+01  0.5573E+01
      6.735  0.1174E+01  0.1174E+01  0.5702E+01  0.5702E+01
      6.846  0.1118E+01  0.1118E+01  0.5826E+01  0.5826E+01
      6.956  0.1099E+01  0.1099E+01  0.5947E+01  0.5947E+01
      7.067  0.1095E+01  0.1095E+01  0.6068E+01  0.6068E+01
      7.177  0.1038E+01  0.1038E+01  0.6183E+01  0.6183E+01
      7.288  0.8809E+00  0.8809E+00  0.6280E+01  0.6280E+01
      7.398  0.7151E+00  0.7151E+00  0.6359E+01  0.6359E+01
      7.508  0.6163E+00  0.6163E+00  0.6427E+01  0.6427E+01
      7.619  0.5710E+00  0.5710E+00  0.6490E+01  0.6490E+01
      7.729  0.5537E+00  0.5537E+00  0.6552E+01  0.6552E+01
      7.840  0.5528E+00  0.5528E+00  0.6613E+01  0.6613E+01
      7.950  0.5698E+00  0.5698E+00  0.6676E+01  0.6676E+01
      8.061  0.6085E+00  0.6085E+00  0.6743E+01  0.6743E+01
      8.171  0.6498E+00  0.6498E+00  0.6815E+01  0.6815E+01
      8.281  0.6411E+00  0.6411E+00  0.6886E+01  0.6886E+01
      8.392  0.5828E+00  0.5828E+00  0.6950E+01  0.6950E+01
      8.502  0.5278E+00  0.5278E+00  0.7008E+01  0.7008E+01
      8.613  0.4969E+00  0.4969E+00  0.7063E+01  0.7063E+01
      8.723  0.4866E+00  0.4866E+00  0.7117E+01  0.7117E+01
      8.834  0.4981E+00  0.4981E+00  0.7172E+01  0.7172E+01
      8.944  0.5412E+00  0.5412E+00  0.7232E+01  0.7232E+01
      9.054  0.6251E+00  0.6251E+00  0.7301E+01  0.7301E+01
      9.165  0.7138E+00  0.7138E+00  0.7380E+01  0.7380E+01
      9.275  0.7382E+00  0.7382E+00  0.7461E+01  0.7461E+01
      9.386  0.7146E+00  0.7146E+00  0.7540E+01  0.7540E+01
      9.496  0.7007E+00  0.7007E+00  0.7618E+01  0.7618E+01
      9.606  0.6963E+00  0.6963E+00  0.7695E+01  0.7695E+01
      9.717  0.6813E+00  0.6813E+00  0.7770E+01  0.7770E+01
      9.827  0.6605E+00  0.6605E+00  0.7843E+01  0.7843E+01
      9.938  0.6416E+00  0.6416E+00  0.7914E+01  0.7914E+01
     10.048  0.6273E+00  0.6273E+00  0.7983E+01  0.7983E+01
     10.159  0.6157E+00  0.6157E+00  0.8051E+01  0.8051E+01
     10.269  0.6063E+00  0.6063E+00  0.8118E+01  0.8118E+01
     10.379  0.5982E+00  0.5982E+00  0.8184E+01  0.8184E+01
     10.490  0.5911E+00  0.5911E+00  0.8250E+01  0.8250E+01
     10.600  0.5852E+00  0.5852E+00  0.8314E+01  0.8314E+01
     10.711  0.5790E+00  0.5790E+00  0.8378E+01  0.8378E+01
     10.821  0.5741E+00  0.5741E+00  0.8442E+01  0.8442E+01
     10.932  0.5691E+00  0.5691E+00  0.8505E+01  0.8505E+01
     11.042  0.5647E+00  0.5647E+00  0.8567E+01  0.8567E+01
     11.152  0.5607E+00  0.5607E+00  0.8629E+01  0.8629E+01
     11.263  0.5564E+00  0.5564E+00  0.8690E+01  0.8690E+01
     11.373  0.5532E+00  0.5532E+00  0.8751E+01  0.8751E+01
     11.484  0.5495E+00  0.5495E+00  0.8812E+01  0.8812E+01
     11.594  0.5467E+00  0.5467E+00  0.8873E+01  0.8873E+01
     11.704  0.5437E+00  0.5437E+00  0.8933E+01  0.8933E+01
     11.815  0.5412E+00  0.5412E+00  0.8992E+01  0.8992E+01
     11.925  0.5389E+00  0.5389E+00  0.9052E+01  0.9052E+01
     12.036  0.5367E+00  0.5367E+00  0.9111E+01  0.9111E+01
     12.146  0.5351E+00  0.5351E+00  0.9170E+01  0.9170E+01
     12.257  0.5336E+00  0.5336E+00  0.9229E+01  0.9229E+01
     12.367  0.5328E+00  0.5328E+00  0.9288E+01  0.9288E+01
     12.477  0.5326E+00  0.5326E+00  0.9347E+01  0.9347E+01
     12.588  0.5330E+00  0.5330E+00  0.9406E+01  0.9406E+01
     12.698  0.5355E+00  0.5355E+00  0.9465E+01  0.9465E+01
     12.809  0.5406E+00  0.5406E+00  0.9525E+01  0.9525E+01
     12.919  0.5538E+00  0.5538E+00  0.9586E+01  0.9586E+01
     13.030  0.5831E+00  0.5831E+00  0.9651E+01  0.9651E+01
     13.140  0.6453E+00  0.6453E+00  0.9722E+01  0.9722E+01
     13.250  0.7454E+00  0.7454E+00  0.9804E+01  0.9804E+01
     13.361  0.8595E+00  0.8595E+00  0.9899E+01  0.9899E+01
     13.471  0.1018E+01  0.1018E+01  0.1001E+02  0.1001E+02
     13.582  0.1283E+01  0.1283E+01  0.1015E+02  0.1015E+02
     13.692  0.1503E+01  0.1503E+01  0.1032E+02  0.1032E+02
     13.803  0.1481E+01  0.1481E+01  0.1048E+02  0.1048E+02
     13.913  0.1319E+01  0.1319E+01  0.1063E+02  0.1063E+02
     14.023  0.1168E+01  0.1168E+01  0.1076E+02  0.1076E+02
     14.134  0.1063E+01  0.1063E+01  0.1087E+02  0.1087E+02
     14.244  0.9940E+00  0.9940E+00  0.1098E+02  0.1098E+02
     14.355  0.9471E+00  0.9471E+00  0.1109E+02  0.1109E+02
     14.465  0.9130E+00  0.9130E+00  0.1119E+02  0.1119E+02
     14.575  0.8894E+00  0.8894E+00  0.1129E+02  0.1129E+02
     14.686  0.8722E+00  0.8722E+00  0.1138E+02  0.1138E+02
     14.796  0.8592E+00  0.8592E+00  0.1148E+02  0.1148E+02
     14.907  0.8512E+00  0.8512E+00  0.1157E+02  0.1157E+02
     15.017  0.8467E+00  0.8467E+00  0.1167E+02  0.1167E+02
     15.128  0.8533E+00  0.8533E+00  0.1176E+02  0.1176E+02
     15.238  0.8826E+00  0.8826E+00  0.1186E+02  0.1186E+02
     15.348  0.9712E+00  0.9712E+00  0.1197E+02  0.1197E+02
     15.459  0.1157E+01  0.1157E+01  0.1209E+02  0.1209E+02
     15.569  0.1383E+01  0.1383E+01  0.1225E+02  0.1225E+02
     15.680  0.1472E+01  0.1472E+01  0.1241E+02  0.1241E+02
     15.790  0.1404E+01  0.1404E+01  0.1256E+02  0.1256E+02
     15.901  0.1309E+01  0.1309E+01  0.1271E+02  0.1271E+02
     16.011  0.1269E+01  0.1269E+01  0.1285E+02  0.1285E+02
     16.121  0.1321E+01  0.1321E+01  0.1300E+02  0.1300E+02
     16.232  0.1477E+01  0.1477E+01  0.1316E+02  0.1316E+02
     16.342  0.1636E+01  0.1636E+01  0.1334E+02  0.1334E+02
     16.453  0.1653E+01  0.1653E+01  0.1352E+02  0.1352E+02
     16.563  0.1566E+01  0.1566E+01  0.1370E+02  0.1370E+02
     16.673  0.1475E+01  0.1475E+01  0.1386E+02  0.1386E+02
     16.784  0.1429E+01  0.1429E+01  0.1402E+02  0.1402E+02
     16.894  0.1447E+01  0.1447E+01  0.1418E+02  0.1418E+02
     17.005  0.1554E+01  0.1554E+01  0.1435E+02  0.1435E+02
     17.115  0.1715E+01  0.1715E+01  0.1454E+02  0.1454E+02
     17.226  0.1797E+01  0.1797E+01  0.1474E+02  0.1474E+02
     17.336  0.1757E+01  0.1757E+01  0.1493E+02  0.1493E+02
     17.446  0.1680E+01  0.1680E+01  0.1512E+02  0.1512E+02
     17.557  0.1611E+01  0.1611E+01  0.1529E+02  0.1529E+02
     17.667  0.1559E+01  0.1559E+01  0.1547E+02  0.1547E+02
     17.778  0.1517E+01  0.1517E+01  0.1563E+02  0.1563E+02
     17.888  0.1481E+01  0.1481E+01  0.1580E+02  0.1580E+02
     17.999  0.1451E+01  0.1451E+01  0.1596E+02  0.1596E+02
     18.109  0.1425E+01  0.1425E+01  0.1611E+02  0.1611E+02
     18.219  0.1405E+01  0.1405E+01  0.1627E+02  0.1627E+02
     18.330  0.1392E+01  0.1392E+01  0.1642E+02  0.1642E+02
     18.440  0.1394E+01  0.1394E+01  0.1658E+02  0.1658E+02
     18.551  0.1429E+01  0.1429E+01  0.1674E+02  0.1674E+02
     18.661  0.1532E+01  0.1532E+01  0.1690E+02  0.1690E+02
     18.772  0.1722E+01  0.1722E+01  0.1710E+02  0.1710E+02
     18.882  0.1916E+01  0.1916E+01  0.1731E+02  0.1731E+02
     18.992  0.2022E+01  0.2022E+01  0.1753E+02  0.1753E+02
     19.103  0.2066E+01  0.2066E+01  0.1776E+02  0.1776E+02
     19.213  0.2088E+01  0.2088E+01  0.1799E+02  0.1799E+02
     19.324  0.2143E+01  0.2143E+01  0.1823E+02  0.1823E+02
     19.434  0.2234E+01  0.2234E+01  0.1847E+02  0.1847E+02
     19.544  0.2217E+01  0.2217E+01  0.1872E+02  0.1872E+02
     19.655  0.1986E+01  0.1986E+01  0.1894E+02  0.1894E+02
     19.765  0.1670E+01  0.1670E+01  0.1912E+02  0.1912E+02
     19.876  0.1425E+01  0.1425E+01  0.1928E+02  0.1928E+02
     19.986  0.1292E+01  0.1292E+01  0.1942E+02  0.1942E+02
     20.097  0.1260E+01  0.1260E+01  0.1956E+02  0.1956E+02
     20.207  0.1288E+01  0.1288E+01  0.1970E+02  0.1970E+02
     20.317  0.1349E+01  0.1349E+01  0.1985E+02  0.1985E+02
     20.428  0.1422E+01  0.1422E+01  0.2001E+02  0.2001E+02
     20.538  0.1484E+01  0.1484E+01  0.2017E+02  0.2017E+02
     20.649  0.1473E+01  0.1473E+01  0.2034E+02  0.2034E+02
     20.759  0.1368E+01  0.1368E+01  0.2049E+02  0.2049E+02
     20.870  0.1246E+01  0.1246E+01  0.2063E+02  0.2063E+02
     20.980  0.1165E+01  0.1165E+01  0.2075E+02  0.2075E+02
     21.090  0.1117E+01  0.1117E+01  0.2088E+02  0.2088E+02
     21.201  0.1083E+01  0.1083E+01  0.2100E+02  0.2100E+02
     21.311  0.1057E+01  0.1057E+01  0.2111E+02  0.2111E+02
     21.422  0.1033E+01  0.1033E+01  0.2123E+02  0.2123E+02
     21.532  0.1014E+01  0.1014E+01  0.2134E+02  0.2134E+02
     21.642  0.9998E+00  0.9998E+00  0.2145E+02  0.2145E+02
     21.753  0.9934E+00  0.9934E+00  0.2156E+02  0.2156E+02
     21.863  0.1003E+01  0.1003E+01  0.2167E+02  0.2167E+02
     21.974  0.1037E+01  0.1037E+01  0.2179E+02  0.2179E+02
     22.084  0.1100E+01  0.1100E+01  0.2191E+02  0.2191E+02
     22.195  0.1166E+01  0.1164E+01  0.2204E+02  0.2204E+02
     22.305  0.1209E+01  0.1206E+01  0.2217E+02  0.2217E+02
     22.415  0.1219E+01  0.1213E+01  0.2230E+02  0.2230E+02
     22.526  0.1168E+01  0.1159E+01  0.2243E+02  0.2243E+02
     22.636  0.1095E+01  0.1089E+01  0.2255E+02  0.2255E+02
     22.747  0.1031E+01  0.1028E+01  0.2267E+02  0.2267E+02
     22.857  0.9632E+00  0.9620E+00  0.2277E+02  0.2277E+02
     22.968  0.8906E+00  0.8902E+00  0.2287E+02  0.2287E+02
     23.078  0.8386E+00  0.8384E+00  0.2297E+02  0.2296E+02
     23.188  0.8092E+00  0.8091E+00  0.2306E+02  0.2305E+02
     23.299  0.7928E+00  0.7927E+00  0.2314E+02  0.2314E+02
     23.409  0.7917E+00  0.7914E+00  0.2323E+02  0.2323E+02
     23.520  0.8129E+00  0.8119E+00  0.2332E+02  0.2332E+02
     23.630  0.8535E+00  0.8508E+00  0.2341E+02  0.2341E+02
     23.740  0.8922E+00  0.8862E+00  0.2351E+02  0.2351E+02
     23.851  0.8597E+00  0.8501E+00  0.2361E+02  0.2360E+02
     23.961  0.7214E+00  0.7139E+00  0.2369E+02  0.2368E+02
     24.072  0.5628E+00  0.5632E+00  0.2375E+02  0.2374E+02
     24.182  0.4495E+00  0.4551E+00  0.2380E+02  0.2379E+02
     24.293  0.3816E+00  0.3850E+00  0.2384E+02  0.2384E+02
     24.403  0.3271E+00  0.3242E+00  0.2388E+02  0.2387E+02
     24.513  0.2632E+00  0.2580E+00  0.2391E+02  0.2390E+02
     24.624  0.1934E+00  0.1901E+00  0.2393E+02  0.2392E+02
     24.734  0.1351E+00  0.1338E+00  0.2394E+02  0.2394E+02
     24.845  0.9431E-01  0.9425E-01  0.2395E+02  0.2395E+02
     24.955  0.7123E-01  0.7228E-01  0.2396E+02  0.2396E+02
     25.066  0.6179E-01  0.6484E-01  0.2397E+02  0.2396E+02
     25.176  0.5723E-01  0.6358E-01  0.2398E+02  0.2397E+02
     25.286  0.5353E-01  0.6198E-01  0.2398E+02  0.2398E+02
     25.397  0.4695E-01  0.5348E-01  0.2399E+02  0.2398E+02
     25.507  0.3317E-01  0.3641E-01  0.2399E+02  0.2399E+02
     25.618  0.1717E-01  0.1843E-01  0.2399E+02  0.2399E+02
     25.728  0.6989E-02  0.7431E-02  0.2399E+02  0.2399E+02
     25.839  0.2542E-02  0.2692E-02  0.2399E+02  0.2399E+02
     25.949  0.1026E-02  0.1076E-02  0.2399E+02  0.2399E+02
     26.059  0.8490E-03  0.8492E-03  0.2399E+02  0.2399E+02
     26.170  0.1776E-02  0.1785E-02  0.2399E+02  0.2399E+02
     26.280  0.4612E-02  0.4631E-02  0.2399E+02  0.2399E+02
     26.391  0.1032E-01  0.1037E-01  0.2399E+02  0.2399E+02
     26.501  0.1604E-01  0.1621E-01  0.2400E+02  0.2399E+02
     26.611  0.1502E-01  0.1551E-01  0.2400E+02  0.2400E+02
     26.722  0.8661E-02  0.1007E-01  0.2400E+02  0.2400E+02
     26.832  0.3642E-02  0.7197E-02  0.2400E+02  0.2400E+02
     26.943  0.1319E-02  0.8217E-02  0.2400E+02  0.2400E+02
     27.053  0.4506E-03  0.8873E-02  0.2400E+02  0.2400E+02
     27.164  0.1509E-03  0.6132E-02  0.2400E+02  0.2400E+02
     27.274  0.3156E-04  0.2843E-02  0.2400E+02  0.2400E+02
     27.384  0.0000E+00  0.1066E-02  0.2400E+02  0.2400E+02
     27.495  0.0000E+00  0.3702E-03  0.2400E+02  0.2400E+02
     27.605  0.0000E+00  0.1247E-03  0.2400E+02  0.2400E+02
     27.716  0.0000E+00  0.4155E-04  0.2400E+02  0.2400E+02
     27.826  0.0000E+00  0.0000E+00  0.2400E+02  0.2400E+02
     27.937  0.0000E+00  0.0000E+00  0.2400E+02  0.2400E+02
     28.047  0.0000E+00  0.0000E+00  0.2400E+02  0.2400E+02
     28.157  0.0000E+00  0.0000E+00  0.2400E+02  0.2400E+02
     28.268  0.0000E+00  0.0000E+00  0.2400E+02  0.2400E+02
     28.378  0.0000E+00  0.0000E+00  0.2400E+02  0.2400E+02
     28.489  0.0000E+00  0.0000E+00  0.2400E+02  0.2400E+02
