    4    4    1    2
  0.1649350E+02  0.4040709E-09  0.4040709E-09  0.4040709E-09  0.5000000E-15
  1.000000000000000E-004
  CAR 
 Al_225                                  
     12    286     24
 
  0.0000000E+00  0.0000000E+00  0.0000000E+00  0.1250000E-03
    1       -3.133087     -3.133087   1.000000   1.000000
    2        5.079308      5.079308   1.000000   1.000000
    3        5.079308      5.079308   1.000000   1.000000
    4        5.079308      5.079308   1.000000   1.000000
    5        6.403351      6.403351   1.000000   1.000000
    6        6.403351      6.403351   1.000000   1.000000
    7        6.403351      6.403351   1.000000   1.000000
    8       13.262092     13.262092   0.000000   0.000000
    9       13.262092     13.262092   0.000000   0.000000
   10       13.262092     13.262092   0.000000   0.000000
   11       13.600333     13.600333   0.000000   0.000000
   12       13.600333     13.600333   0.000000   0.000000
   13       13.600333     13.600333   0.000000   0.000000
   14       13.600333     13.600333   0.000000   0.000000
   15       13.600333     13.600333   0.000000   0.000000
   16       13.600333     13.600333   0.000000   0.000000
   17       17.076252     17.076252   0.000000   0.000000
   18       17.076252     17.076252   0.000000   0.000000
   19       17.076252     17.076252   0.000000   0.000000
   20       20.625426     20.625426   0.000000   0.000000
   21       20.625426     20.625426   0.000000   0.000000
   22       20.625426     20.625426   0.000000   0.000000
   23       22.120243     22.120243   0.000000   0.000000
   24       22.120243     22.120243   0.000000   0.000000
 
  0.5000000E-01  0.0000000E+00  0.0000000E+00  0.7500000E-03
    1       -3.110433     -3.110433   1.000000   1.000000
    2        4.672435      4.672435   1.000000   1.000000
    3        5.100058      5.100058   1.000000   1.000000
    4        5.100058      5.100058   1.000000   1.000000
    5        6.425277      6.425277   1.000000   1.000000
    6        6.425277      6.425277   1.000000   1.000000
    7        6.849473      6.849474   0.999991   0.999991
    8       12.597380     12.597380   0.000000   0.000000
    9       12.597380     12.597380   0.000000   0.000000
   10       13.284459     13.284459   0.000000   0.000000
   11       13.429009     13.429009   0.000000   0.000000
   12       13.429009     13.429009   0.000000   0.000000
   13       13.619573     13.619572   0.000000   0.000000
   14       13.619573     13.619572   0.000000   0.000000
   15       14.306966     14.306966   0.000000   0.000000
   16       14.306966     14.306966   0.000000   0.000000
   17       17.097039     17.097039   0.000000   0.000000
   18       17.281443     17.281443   0.000000   0.000000
   19       17.281443     17.281443   0.000000   0.000000
   20       20.319989     20.319989   0.000000   0.000000
   21       20.319989     20.319989   0.000000   0.000000
   22       20.442137     20.442137   0.000000   0.000000
   23       22.063475     22.063474   0.000000   0.000000
   24       22.459161     22.459161   0.000000   0.000000
 
  0.1000000E+00  0.0000000E+00  0.0000000E+00  0.7500000E-03
    1       -3.042447     -3.042447   1.000000   1.000000
    2        3.969709      3.969709   1.000000   1.000000
    3        5.162281      5.162281   1.000000   1.000000
    4        5.162281      5.162281   1.000000   1.000000
    5        6.490938      6.490938   1.000000   1.000000
    6        6.490938      6.490938   1.000000   1.000000
    7        7.669909      7.669909   0.968435   0.968435
    8       11.830890     11.830890   0.000000   0.000000
    9       11.830890     11.830890   0.000000   0.000000
   10       13.002909     13.002908   0.000000   0.000000
   11       13.002909     13.002908   0.000000   0.000000
   12       13.351540     13.351540   0.000000   0.000000
   13       13.677277     13.677277   0.000000   0.000000
   14       13.677277     13.677277   0.000000   0.000000
   15       15.199152     15.199152   0.000000   0.000000
   16       15.199152     15.199152   0.000000   0.000000
   17       17.159249     17.159248   0.000000   0.000000
   18       17.808973     17.808973   0.000000   0.000000
   19       17.808973     17.808973   0.000000   0.000000
   20       19.738262     19.738262   0.000000   0.000000
   21       19.738262     19.738262   0.000000   0.000000
   22       19.986529     19.986529   0.000000   0.000000
   23       21.900053     21.900052   0.000000   0.000000
   24       23.140735     23.140734   0.000000   0.000000
 
  0.1500000E+00  0.0000000E+00  0.0000000E+00  0.7500000E-03
    1       -2.929215     -2.929215   1.000000   1.000000
    2        3.244481      3.244481   1.000000   1.000000
    3        5.266011      5.266011   1.000000   1.000000
    4        5.266011      5.266011   1.000000   1.000000
    5        6.599988      6.599988   0.999999   0.999999
    6        6.599988      6.599988   0.999999   0.999999
    7        8.591242      8.591243   0.003050   0.003050
    8       11.101022     11.101022   0.000000   0.000000
    9       11.101022     11.101022   0.000000   0.000000
   10       12.457583     12.457583   0.000000   0.000000
   11       12.457583     12.457583   0.000000   0.000000
   12       13.463287     13.463287   0.000000   0.000000
   13       13.773450     13.773450   0.000000   0.000000
   14       13.773450     13.773450   0.000000   0.000000
   15       16.138319     16.138319   0.000000   0.000000
   16       16.138319     16.138319   0.000000   0.000000
   17       17.262437     17.262436   0.000000   0.000000
   18       18.522883     18.522883   0.000000   0.000000
   19       18.522883     18.522883   0.000000   0.000000
   20       19.115346     19.115346   0.000000   0.000000
   21       19.115346     19.115346   0.000000   0.000000
   22       19.404465     19.404465   0.000000   0.000000
   23       21.647732     21.647732   0.000000   0.000000
   24       23.928007     23.928007   0.000000   0.000000
 
  0.2000000E+00  0.0000000E+00  0.0000000E+00  0.7500000E-03
    1       -2.770850     -2.770850   1.000000   1.000000
    2        2.541088      2.541088   1.000000   1.000000
    3        5.411271      5.411271   1.000000   1.000000
    4        5.411271      5.411271   1.000000   1.000000
    5        6.751776      6.751776   0.999997   0.999997
    6        6.751776      6.751776   0.999997   0.999997
    7        9.569009      9.569009   0.000000   0.000000
    8       10.411965     10.411965   0.000000   0.000000
    9       10.411965     10.411965   0.000000   0.000000
   10       11.872920     11.872920   0.000000   0.000000
   11       11.872920     11.872920   0.000000   0.000000
   12       13.619621     13.619621   0.000000   0.000000
   13       13.908133     13.908133   0.000000   0.000000
   14       13.908133     13.908133   0.000000   0.000000
   15       17.119904     17.119904   0.000000   0.000000
   16       17.119904     17.119904   0.000000   0.000000
   17       17.405868     17.405868   0.000000   0.000000
   18       18.504188     18.504188   0.000000   0.000000
   19       18.504188     18.504188   0.000000   0.000000
   20       18.781881     18.781881   0.000000   0.000000
   21       19.342369     19.342369   0.000000   0.000000
   22       19.342369     19.342369   0.000000   0.000000
   23       21.329030     21.329029   0.000000   0.000000
   24       23.935172     23.935172   0.000000   0.000000
 
  0.2500000E+00  0.0000000E+00  0.0000000E+00  0.7500000E-03
    1       -2.567478     -2.567478   1.000000   1.000000
    2        1.870906      1.870906   1.000000   1.000000
    3        5.598090      5.598090   1.000000   1.000000
    4        5.598090      5.598090   1.000000   1.000000
    5        6.945153      6.945153   0.999977   0.999977
    6        6.945153      6.945153   0.999977   0.999977
    7        9.764558      9.764558   0.000000   0.000000
    8        9.764558      9.764558   0.000000   0.000000
    9       10.591674     10.591674   0.000000   0.000000
   10       11.287394     11.287394   0.000000   0.000000
   11       11.287394     11.287394   0.000000   0.000000
   12       13.820417     13.820417   0.000000   0.000000
   13       14.081342     14.081342   0.000000   0.000000
   14       14.081342     14.081342   0.000000   0.000000
   15       17.588467     17.588467   0.000000   0.000000
   16       17.919848     17.919848   0.000000   0.000000
   17       17.919848     17.919848   0.000000   0.000000
   18       18.142553     18.142553   0.000000   0.000000
   19       18.142553     18.142553   0.000000   0.000000
   20       18.159271     18.159271   0.000000   0.000000
   21       20.227460     20.227460   0.000000   0.000000
   22       20.227460     20.227460   0.000000   0.000000
   23       20.965808     20.965808   0.000000   0.000000
   24       22.644603     22.644603   0.000000   0.000000
 
  0.3000000E+00  0.0000000E+00  0.0000000E+00  0.7500000E-03
    1       -2.319336     -2.319336   1.000000   1.000000
    2        1.238249      1.238249   1.000000   1.000000
    3        5.826519      5.826519   1.000000   1.000000
    4        5.826519      5.826519   1.000000   1.000000
    5        7.178063      7.178063   0.999762   0.999762
    6        7.178063      7.178063   0.999762   0.999762
    7        9.159095      9.159095   0.000010   0.000010
    8        9.159095      9.159095   0.000010   0.000010
    9       10.721082     10.721082   0.000000   0.000000
   10       10.721082     10.721082   0.000000   0.000000
   11       11.654610     11.654610   0.000000   0.000000
   12       14.065498     14.065498   0.000000   0.000000
   13       14.293107     14.293107   0.000000   0.000000
   14       14.293107     14.293107   0.000000   0.000000
   15       17.368113     17.368113   0.000000   0.000000
   16       17.368113     17.368113   0.000000   0.000000
   17       17.556033     17.556033   0.000000   0.000000
   18       17.808816     17.808816   0.000000   0.000000
   19       19.205290     19.205290   0.000000   0.000000
   20       19.205290     19.205290   0.000000   0.000000
   21       20.576175     20.576175   0.000000   0.000000
   22       21.155525     21.155525   0.000000   0.000000
   23       21.155525     21.155525   0.000000   0.000000
   24       21.341624     21.341624   0.000000   0.000000
 
  0.3500000E+00  0.0000000E+00  0.0000000E+00  0.7500000E-03
    1       -2.026627     -2.026627   1.000000   1.000000
    2        0.645314      0.645314   1.000000   1.000000
    3        6.096626      6.096626   1.000000   1.000000
    4        6.096626      6.096626   1.000000   1.000000
    5        7.446349      7.446350   0.996527   0.996527
    6        7.446349      7.446350   0.996527   0.996527
    7        8.595667      8.595667   0.002918   0.002918
    8        8.595667      8.595667   0.002918   0.002918
    9       10.187440     10.187440   0.000000   0.000000
   10       10.187440     10.187440   0.000000   0.000000
   11       12.755232     12.755232   0.000000   0.000000
   12       14.354621     14.354621   0.000000   0.000000
   13       14.543432     14.543432   0.000000   0.000000
   14       14.543432     14.543432   0.000000   0.000000
   15       16.851675     16.851675   0.000000   0.000000
   16       16.851675     16.851675   0.000000   0.000000
   17       16.982168     16.982168   0.000000   0.000000
   18       18.065083     18.065083   0.000000   0.000000
   19       20.029754     20.029754   0.000000   0.000000
   20       20.190365     20.190365   0.000000   0.000000
   21       20.307070     20.307069   0.000000   0.000000
   22       20.307070     20.307069   0.000000   0.000000
   23       22.108144     22.108143   0.000000   0.000000
   24       22.108144     22.108143   0.000000   0.000000
 
  0.4000000E+00  0.0000000E+00  0.0000000E+00  0.7500000E-03
    1       -1.689648     -1.689648   1.000000   1.000000
    2        0.093347      0.093347   1.000000   1.000000
    3        6.408456      6.408456   1.000000   1.000000
    4        6.408456      6.408456   1.000000   1.000000
    5        7.739737      7.739737   0.938507   0.938507
    6        7.739737      7.739737   0.938507   0.938507
    7        8.074296      8.074296   0.349729   0.349729
    8        8.074296      8.074296   0.349729   0.349729
    9        9.701818      9.701818   0.000000   0.000000
   10        9.701818      9.701818   0.000000   0.000000
   11       13.891703     13.891703   0.000000   0.000000
   12       14.687452     14.687452   0.000000   0.000000
   13       14.832326     14.832326   0.000000   0.000000
   14       14.832326     14.832326   0.000000   0.000000
   15       16.371967     16.371967   0.000000   0.000000
   16       16.371967     16.371967   0.000000   0.000000
   17       16.443243     16.443243   0.000000   0.000000
   18       18.354976     18.354976   0.000000   0.000000
   19       18.756709     18.756709   0.000000   0.000000
   20       19.782962     19.782962   0.000000   0.000000
   21       21.446629     21.446628   0.000000   0.000000
   22       21.446629     21.446628   0.000000   0.000000
   23       23.058113     23.058112   0.000000   0.000000
   24       23.058113     23.058112   0.000000   0.000000
 
  0.4500000E+00  0.0000000E+00  0.0000000E+00  0.7500000E-03
    1       -1.308744     -1.308744   1.000000   1.000000
    2       -0.416746     -0.416746   1.000000   1.000000
    3        6.762072      6.762072   0.999996   0.999996
    4        6.762072      6.762072   0.999996   0.999996
    5        7.594938      7.594938   0.984833   0.984833
    6        7.594938      7.594938   0.984833   0.984833
    7        8.024676      8.024677   0.469032   0.469031
    8        8.024676      8.024677   0.469032   0.469031
    9        9.300584      9.300584   0.000003   0.000003
   10        9.300584      9.300584   0.000003   0.000003
   11       15.062245     15.062245   0.000000   0.000000
   12       15.063529     15.063529   0.000000   0.000000
   13       15.159745     15.159745   0.000000   0.000000
   14       15.159745     15.159745   0.000000   0.000000
   15       15.929788     15.929788   0.000000   0.000000
   16       15.929788     15.929788   0.000000   0.000000
   17       15.942566     15.942566   0.000000   0.000000
   18       17.497615     17.497615   0.000000   0.000000
   19       18.675648     18.675648   0.000000   0.000000
   20       19.394434     19.394434   0.000000   0.000000
   21       22.622340     22.622339   0.000000   0.000000
   22       22.622340     22.622339   0.000000   0.000000
   23       23.928151     23.928151   0.000000   0.000000
   24       23.928151     23.928151   0.000000   0.000000
 
  0.5000000E+00  0.0000000E+00  0.0000000E+00  0.3750000E-03
    1       -0.884280     -0.884280   1.000000   1.000000
    2       -0.884280     -0.884280   1.000000   1.000000
    3        7.157548      7.157548   0.999806   0.999806
    4        7.157548      7.157548   0.999806   0.999806
    5        7.157548      7.157548   0.999806   0.999806
    6        7.157548      7.157548   0.999806   0.999806
    7        8.173179      8.173179   0.166720   0.166719
    8        8.173179      8.173179   0.166720   0.166719
    9        9.113168      9.113167   0.000017   0.000017
   10        9.113168      9.113167   0.000017   0.000017
   11       15.482208     15.482209   0.000000   0.000000
   12       15.482208     15.482209   0.000000   0.000000
   13       15.525619     15.525619   0.000000   0.000000
   14       15.525619     15.525619   0.000000   0.000000
   15       15.525619     15.525619   0.000000   0.000000
   16       15.525619     15.525619   0.000000   0.000000
   17       16.265006     16.265006   0.000000   0.000000
   18       16.265006     16.265006   0.000000   0.000000
   19       19.023584     19.023584   0.000000   0.000000
   20       19.023584     19.023584   0.000000   0.000000
   21       23.832047     23.832047   0.000000   0.000000
   22       23.832047     23.832047   0.000000   0.000000
   23       23.832047     23.832047   0.000000   0.000000
   24       23.832048     23.832049   0.000000   0.000000
 
  0.5000000E-01  0.5000000E-01  0.0000000E+00  0.1500000E-02
    1       -3.087770     -3.087770   1.000000   1.000000
    2        4.693524      4.693524   1.000000   1.000000
    3        4.693524      4.693524   1.000000   1.000000
    4        5.120801      5.120801   1.000000   1.000000
    5        6.447159      6.447159   1.000000   1.000000
    6        6.871006      6.871006   0.999989   0.999989
    7        6.871006      6.871006   0.999989   0.999989
    8       12.145307     12.145307   0.000000   0.000000
    9       12.618505     12.618505   0.000000   0.000000
   10       12.618505     12.618505   0.000000   0.000000
   11       13.448455     13.448454   0.000000   0.000000
   12       13.448455     13.448454   0.000000   0.000000
   13       13.639108     13.639108   0.000000   0.000000
   14       14.327428     14.327428   0.000000   0.000000
   15       14.327428     14.327428   0.000000   0.000000
   16       14.406385     14.406385   0.000000   0.000000
   17       17.302012     17.302012   0.000000   0.000000
   18       17.302012     17.302012   0.000000   0.000000
   19       17.499762     17.499762   0.000000   0.000000
   20       19.807505     19.807505   0.000000   0.000000
   21       20.063579     20.063579   0.000000   0.000000
   22       20.669514     20.669514   0.000000   0.000000
   23       22.149561     22.149561   0.000000   0.000000
   24       22.575964     22.576593   0.000000   0.000000
 
  0.1000000E+00  0.5000000E-01  0.0000000E+00  0.3000000E-02
    1       -3.019791     -3.019791   1.000000   1.000000
    2        3.991101      3.991101   1.000000   1.000000
    3        4.756802      4.756802   1.000000   1.000000
    4        5.183028      5.183028   1.000000   1.000000
    5        6.512680      6.512680   1.000000   1.000000
    6        6.935503      6.935503   0.999979   0.999979
    7        7.691038      7.691038   0.961297   0.961297
    8       11.441279     11.441279   0.000000   0.000000
    9       11.851878     11.851878   0.000000   0.000000
   10       12.681862     12.681862   0.000000   0.000000
   11       13.022840     13.022840   0.000000   0.000000
   12       13.367739     13.367739   0.000000   0.000000
   13       13.506819     13.506819   0.000000   0.000000
   14       14.388828     14.388828   0.000000   0.000000
   15       15.058085     15.058085   0.000000   0.000000
   16       15.219726     15.219726   0.000000   0.000000
   17       17.363590     17.363589   0.000000   0.000000
   18       17.829096     17.829096   0.000000   0.000000
   19       18.050509     18.050509   0.000000   0.000000
   20       19.158339     19.158339   0.000000   0.000000
   21       19.529379     19.529379   0.000000   0.000000
   22       20.482232     20.482232   0.000000   0.000000
   23       22.053104     22.053104   0.000000   0.000000
   24       23.030292     23.030348   0.000000   0.000000
 
  0.1500000E+00  0.5000000E-01  0.0000000E+00  0.3000000E-02
    1       -2.906582     -2.906582   1.000000   1.000000
    2        3.266071      3.266071   1.000000   1.000000
    3        4.862229      4.862229   1.000000   1.000000
    4        5.286760      5.286760   1.000000   1.000000
    5        6.621441      6.621441   0.999999   0.999999
    6        7.042644      7.042644   0.999938   0.999938
    7        8.611979      8.611979   0.002480   0.002480
    8       10.735291     10.735291   0.000000   0.000000
    9       11.121960     11.121960   0.000000   0.000000
   10       12.478071     12.478071   0.000000   0.000000
   11       12.787383     12.787383   0.000000   0.000000
   12       12.839865     12.839865   0.000000   0.000000
   13       13.604099     13.604099   0.000000   0.000000
   14       14.491190     14.491190   0.000000   0.000000
   15       15.936709     15.936709   0.000000   0.000000
   16       16.158891     16.158891   0.000000   0.000000
   17       17.465752     17.465752   0.000000   0.000000
   18       18.499633     18.499633   0.000000   0.000000
   19       18.542516     18.542515   0.000000   0.000000
   20       18.783480     18.783480   0.000000   0.000000
   21       18.930467     18.930467   0.000000   0.000000
   22       20.010045     20.010045   0.000000   0.000000
   23       21.814539     21.814538   0.000000   0.000000
   24       23.734935     23.734955   0.000000   0.000000
 
  0.2000000E+00  0.5000000E-01  0.0000000E+00  0.3000000E-02
    1       -2.748240     -2.748240   1.000000   1.000000
    2        2.562825      2.562825   1.000000   1.000000
    3        5.009749      5.009749   1.000000   1.000000
    4        5.432028      5.432028   1.000000   1.000000
    5        6.772644      6.772644   0.999996   0.999996
    6        7.191795      7.191795   0.999727   0.999727
    7        9.589260      9.589260   0.000000   0.000000
    8       10.058066     10.058066   0.000000   0.000000
    9       10.432881     10.432881   0.000000   0.000000
   10       11.894065     11.894064   0.000000   0.000000
   11       12.256301     12.256301   0.000000   0.000000
   12       12.934960     12.934960   0.000000   0.000000
   13       13.740323     13.740322   0.000000   0.000000
   14       14.634559     14.634559   0.000000   0.000000
   15       16.891160     16.891160   0.000000   0.000000
   16       17.140436     17.140435   0.000000   0.000000
   17       17.607788     17.607788   0.000000   0.000000
   18       17.857363     17.857363   0.000000   0.000000
   19       18.331659     18.331659   0.000000   0.000000
   20       19.361493     19.361493   0.000000   0.000000
   21       19.445415     19.445415   0.000000   0.000000
   22       19.617140     19.617140   0.000000   0.000000
   23       21.500296     21.500296   0.000000   0.000000
   24       23.949521     23.949521   0.000000   0.000000
 
  0.2500000E+00  0.5000000E-01  0.0000000E+00  0.3000000E-02
    1       -2.544900     -2.544900   1.000000   1.000000
    2        1.892767      1.892767   1.000000   1.000000
    3        5.199274      5.199274   1.000000   1.000000
    4        5.618854      5.618854   1.000000   1.000000
    5        6.964714      6.964714   0.999972   0.999972
    6        7.381793      7.381794   0.998176   0.998176
    7        9.418051      9.418051   0.000001   0.000001
    8        9.785457      9.785457   0.000000   0.000000
    9       10.611237     10.611237   0.000000   0.000000
   10       11.309452     11.309452   0.000000   0.000000
   11       11.669638     11.669638   0.000000   0.000000
   12       13.124439     13.124439   0.000000   0.000000
   13       13.915555     13.915555   0.000000   0.000000
   14       14.818991     14.818991   0.000000   0.000000
   15       17.242036     17.242035   0.000000   0.000000
   16       17.753759     17.753759   0.000000   0.000000
   17       17.788675     17.788674   0.000000   0.000000
   18       17.896685     17.896685   0.000000   0.000000
   19       18.163006     18.163006   0.000000   0.000000
   20       18.865144     18.865144   0.000000   0.000000
   21       20.246011     20.246011   0.000000   0.000000
   22       20.513532     20.513531   0.000000   0.000000
   23       21.138723     21.138723   0.000000   0.000000
   24       22.666673     22.666673   0.000000   0.000000
 
  0.3000000E+00  0.5000000E-01  0.0000000E+00  0.3000000E-02
    1       -2.296801     -2.296801   1.000000   1.000000
    2        1.260219      1.260219   1.000000   1.000000
    3        5.430675      5.430674   1.000000   1.000000
    4        5.847296      5.847296   1.000000   1.000000
    5        7.194038      7.194038   0.999721   0.999721
    6        7.610369      7.610369   0.982347   0.982347
    7        8.820307      8.820307   0.000309   0.000309
    8        9.179974      9.179974   0.000008   0.000008
    9       10.744682     10.744682   0.000000   0.000000
   10       11.101532     11.101531   0.000000   0.000000
   11       11.673026     11.673026   0.000000   0.000000
   12       13.355611     13.355611   0.000000   0.000000
   13       14.129970     14.129970   0.000000   0.000000
   14       15.044523     15.044523   0.000000   0.000000
   15       16.658785     16.658785   0.000000   0.000000
   16       17.205107     17.205107   0.000000   0.000000
   17       18.007038     18.007038   0.000000   0.000000
   18       18.298940     18.298940   0.000000   0.000000
   19       18.945594     18.945594   0.000000   0.000000
   20       19.225629     19.225629   0.000000   0.000000
   21       20.746761     20.746761   0.000000   0.000000
   22       21.173308     21.173308   0.000000   0.000000
   23       21.371404     21.371404   0.000000   0.000000
   24       21.451758     21.451758   0.000000   0.000000
 
  0.3500000E+00  0.5000000E-01  0.0000000E+00  0.3000000E-02
    1       -2.004138     -2.004138   1.000000   1.000000
    2        0.667379      0.667379   1.000000   1.000000
    3        5.703755      5.703755   1.000000   1.000000
    4        6.117409      6.117409   1.000000   1.000000
    5        7.447160      7.447160   0.996499   0.996499
    6        7.872437      7.872437   0.801925   0.801925
    7        8.276925      8.276925   0.066204   0.066204
    8        8.616531      8.616531   0.002370   0.002370
    9       10.214399     10.214398   0.000000   0.000000
   10       10.564234     10.564233   0.000000   0.000000
   11       12.771370     12.771370   0.000000   0.000000
   12       13.628220     13.628220   0.000000   0.000000
   13       14.384179     14.384179   0.000000   0.000000
   14       15.311172     15.311172   0.000000   0.000000
   15       16.110508     16.110508   0.000000   0.000000
   16       16.689603     16.689603   0.000000   0.000000
   17       17.759917     17.759917   0.000000   0.000000
   18       18.261116     18.261116   0.000000   0.000000
   19       20.033678     20.033678   0.000000   0.000000
   20       20.046278     20.046278   0.000000   0.000000
   21       20.327254     20.327254   0.000000   0.000000
   22       20.378478     20.378478   0.000000   0.000000
   23       22.124486     22.124485   0.000000   0.000000
   24       22.414621     22.414621   0.000000   0.000000
 
  0.4000000E+00  0.5000000E-01  0.0000000E+00  0.3000000E-02
    1       -1.667214     -1.667214   1.000000   1.000000
    2        0.115499      0.115499   1.000000   1.000000
    3        6.018178      6.018178   1.000000   1.000000
    4        6.429247      6.429246   1.000000   1.000000
    5        7.566749      7.566749   0.988516   0.988516
    6        7.939939      7.939939   0.673343   0.673343
    7        8.095139      8.095139   0.303929   0.303929
    8        8.153435      8.153436   0.195979   0.195978
    9        9.738638      9.738637   0.000000   0.000000
   10       10.068679     10.068679   0.000000   0.000000
   11       13.900813     13.900813   0.000000   0.000000
   12       13.941951     13.941951   0.000000   0.000000
   13       14.681677     14.681677   0.000000   0.000000
   14       15.599025     15.599025   0.000000   0.000000
   15       15.618903     15.618903   0.000000   0.000000
   16       16.209191     16.209190   0.000000   0.000000
   17       17.254531     17.254531   0.000000   0.000000
   18       18.548695     18.548694   0.000000   0.000000
   19       18.779439     18.779439   0.000000   0.000000
   20       19.968967     19.968966   0.000000   0.000000
   21       21.156856     21.156856   0.000000   0.000000
   22       21.466606     21.466605   0.000000   0.000000
   23       23.069496     23.069496   0.000000   0.000000
   24       23.375396     23.375396   0.000000   0.000000
 
  0.4500000E+00  0.5000000E-01  0.0000000E+00  0.3000000E-02
    1       -1.286369     -1.286369   1.000000   1.000000
    2       -0.394511     -0.394511   1.000000   1.000000
    3        6.373243      6.373243   1.000000   1.000000
    4        6.782876      6.782876   0.999995   0.999995
    5        7.192639      7.192639   0.999724   0.999724
    6        7.615766      7.615766   0.981386   0.981386
    7        8.152583      8.152584   0.197324   0.197324
    8        8.395616      8.395616   0.021177   0.021177
    9        9.378702      9.378702   0.000001   0.000001
   10        9.634871      9.634871   0.000000   0.000000
   11       14.296420     14.296420   0.000000   0.000000
   12       14.931634     14.931634   0.000000   0.000000
   13       15.125600     15.125600   0.000000   0.000000
   14       15.150228     15.150227   0.000000   0.000000
   15       15.764597     15.764597   0.000000   0.000000
   16       15.967572     15.967572   0.000000   0.000000
   17       16.786216     16.786216   0.000000   0.000000
   18       17.524013     17.524013   0.000000   0.000000
   19       18.867013     18.867013   0.000000   0.000000
   20       19.581540     19.581540   0.000000   0.000000
   21       22.307798     22.307798   0.000000   0.000000
   22       22.642046     22.642046   0.000000   0.000000
   23       23.883727     23.883727   0.000000   0.000000
   24       24.251168     24.251170   0.000000   0.000000
 
  0.5000000E+00  0.5000000E-01  0.0000000E+00  0.1500000E-02
    1       -0.861971     -0.861971   1.000000   1.000000
    2       -0.861971     -0.861971   1.000000   1.000000
    3        6.767184      6.767184   0.999996   0.999996
    4        6.767184      6.767184   0.999996   0.999996
    5        7.178362      7.178362   0.999761   0.999761
    6        7.178362      7.178362   0.999761   0.999761
    7        8.402145      8.402145   0.019865   0.019865
    8        8.402145      8.402145   0.019865   0.019865
    9        9.334684      9.334684   0.000002   0.000002
   10        9.334684      9.334684   0.000002   0.000002
   11       14.691160     14.691160   0.000000   0.000000