    4    4    1    2
  0.1649350E+02  0.4040709E-09  0.4040709E-09  0.4040709E-09  0.5000000E-15
  1.000000000000000E-004
  CAR 
 Al_225                                  
     12    288     24
 
  0.5000000E+00  0.0000000E+00  0.0000000E+00  0.3472222E-02
    1       -0.883390     -0.883390   1.000000   1.000000
    2       -0.883390     -0.883390   1.000000   1.000000
    3        7.158507      7.158507   0.176464   0.176464
    4        7.158507      7.158507   0.176464   0.176464
    5        7.158507      7.158507   0.176464   0.176464
    6        7.158507      7.158507   0.176464   0.176464
    7        8.173219      8.173219   0.000008   0.000008
    8        8.173219      8.173219   0.000008   0.000008
    9        9.115610      9.115610   0.000000   0.000000
   10        9.115610      9.115610   0.000000   0.000000
   11       15.482550     15.482550   0.000000   0.000000
   12       15.482550     15.482550   0.000000   0.000000
   13       15.527167     15.527167   0.000000   0.000000
   14       15.527167     15.527167   0.000000   0.000000
   15       15.527167     15.527167   0.000000   0.000000
   16       15.527167     15.527167   0.000000   0.000000
   17       16.265859     16.265859   0.000000   0.000000
   18       16.265859     16.265859   0.000000   0.000000
   19       19.025663     19.025663   0.000000   0.000000
   20       19.025663     19.025663   0.000000   0.000000
   21       23.833196     23.833196   0.000000   0.000000
   22       23.833196     23.833196   0.000000   0.000000
   23       24.384041     24.384041   0.000000   0.000000
   24       24.384041     24.384041   0.000000   0.000000
 
  0.5000000E+00  0.7042254E-02  0.7042254E-02  0.3472222E-02
    1       -0.882505     -0.882505   1.000000   1.000000
    2       -0.882505     -0.882505   1.000000   1.000000
    3        7.145479      7.145479   0.196201   0.196201
    4        7.145479      7.145479   0.196201   0.196201
    5        7.151721      7.151721   0.186543   0.186543
    6        7.151721      7.151721   0.186543   0.186543
    7        8.187925      8.187925   0.000007   0.000007
    8        8.187925      8.187925   0.000007   0.000007
    9        9.123920      9.123920   0.000000   0.000000
   10        9.123920      9.123920   0.000000   0.000000
   11       15.334975     15.334976   0.000000   0.000000
   12       15.334975     15.334976   0.000000   0.000000
   13       15.527944     15.527944   0.000000   0.000000
   14       15.527944     15.527944   0.000000   0.000000
   15       15.668219     15.668219   0.000000   0.000000
   16       15.668219     15.668219   0.000000   0.000000
   17       16.267342     16.267342   0.000000   0.000000
   18       16.267342     16.267342   0.000000   0.000000
   19       19.033507     19.033507   0.000000   0.000000
   20       19.033507     19.033507   0.000000   0.000000
   21       23.815005     23.815005   0.000000   0.000000
   22       23.815005     23.815005   0.000000   0.000000
   23       23.828916     23.828916   0.000000   0.000000
   24       23.828916     23.828916   0.000000   0.000000
 
  0.5000000E+00  0.1408451E-01  0.1408451E-01  0.3472222E-02
    1       -0.879850     -0.879850   1.000000   1.000000
    2       -0.879850     -0.879850   1.000000   1.000000
    3        7.108449      7.108449   0.261166   0.261166
    4        7.108449      7.108449   0.261166   0.261166
    5        7.131725      7.131725   0.218801   0.218801
    6        7.131725      7.131725   0.218801   0.218801
    7        8.229992      8.229992   0.000005   0.000005
    8        8.229992      8.229992   0.000005   0.000005
    9        9.148512      9.148512   0.000000   0.000000
   10        9.148512      9.148512   0.000000   0.000000
   11       15.161856     15.161856   0.000000   0.000000
   12       15.161856     15.161856   0.000000   0.000000
   13       15.530275     15.530275   0.000000   0.000000
   14       15.530275     15.530275   0.000000   0.000000
   15       15.821443     15.821443   0.000000   0.000000
   16       15.821443     15.821443   0.000000   0.000000
   17       16.272111     16.272111   0.000000   0.000000
   18       16.272111     16.272111   0.000000   0.000000
   19       19.057049     19.057049   0.000000   0.000000
   20       19.057049     19.057049   0.000000   0.000000
   21       23.766596     23.766596   0.000000   0.000000
   22       23.766596     23.766596   0.000000   0.000000
   23       23.816198     23.816198   0.000000   0.000000
   24       23.816198     23.816198   0.000000   0.000000
 
  0.5000000E+00  0.2112676E-01  0.2112676E-01  0.3472222E-02
    1       -0.875424     -0.875424   1.000000   1.000000
    2       -0.875424     -0.875424   1.000000   1.000000
    3        7.052307      7.052307   0.382609   0.382609
    4        7.052307      7.052307   0.382609   0.382609
    5        7.099463      7.099463   0.278875   0.278875
    6        7.099463      7.099463   0.278875   0.278875
    7        8.294529      8.294529   0.000002   0.000002
    8        8.294529      8.294529   0.000002   0.000002
    9        9.188435      9.188435   0.000000   0.000000
   10        9.188435      9.188435   0.000000   0.000000
   11       14.983628     14.983628   0.000000   0.000000
   12       14.983628     14.983628   0.000000   0.000000
   13       15.534161     15.534161   0.000000   0.000000
   14       15.534161     15.534161   0.000000   0.000000
   15       15.965023     15.965023   0.000000   0.000000
   16       15.965023     15.965023   0.000000   0.000000
   17       16.281527     16.281527   0.000000   0.000000
   18       16.281527     16.281527   0.000000   0.000000
   19       19.096303     19.096303   0.000000   0.000000
   20       19.096303     19.096303   0.000000   0.000000
   21       23.699355     23.699355   0.000000   0.000000
   22       23.699355     23.699355   0.000000   0.000000
   23       23.795352     23.795352   0.000000   0.000000
   24       23.795352     23.795352   0.000000   0.000000
 
  0.5000000E+00  0.2816901E-01  0.2816901E-01  0.3472222E-02
    1       -0.869228     -0.869228   1.000000   1.000000
    2       -0.869228     -0.869228   1.000000   1.000000
    3        6.982437      6.982437   0.554829   0.554829
    4        6.982437      6.982437   0.554829   0.554829
    5        7.056309      7.056309   0.373201   0.373201
    6        7.056309      7.056309   0.373201   0.373201
    7        8.376159      8.376159   0.000001   0.000001
    8        8.376159      8.376159   0.000001   0.000001
    9        9.242316      9.242316   0.000000   0.000000
   10        9.242316      9.242316   0.000000   0.000000
   11       14.801415     14.801415   0.000000   0.000000
   12       14.801415     14.801415   0.000000   0.000000
   13       15.539601     15.539601   0.000000   0.000000
   14       15.539601     15.539601   0.000000   0.000000
   15       16.093281     16.093281   0.000000   0.000000
   16       16.093281     16.093281   0.000000   0.000000
   17       16.300150     16.300150   0.000000   0.000000
   18       16.300150     16.300150   0.000000   0.000000
   19       19.151249     19.151249   0.000000   0.000000
   20       19.151249     19.151249   0.000000   0.000000
   21       23.621849     23.621849   0.000000   0.000000
   22       23.621849     23.621849   0.000000   0.000000
   23       23.766866     23.766866   0.000000   0.000000
   24       23.766866     23.766866   0.000000   0.000000
 
  0.5000000E+00  0.3521127E-01  0.3521127E-01  0.3472222E-02
    1       -0.861262     -0.861262   1.000000   1.000000
    2       -0.861262     -0.861262   1.000000   1.000000
    3        6.903296      6.903296   0.733337   0.733337
    4        6.903296      6.903296   0.733337   0.733337
    5        7.003841      7.003841   0.501543   0.501543
    6        7.003841      7.003841   0.501543   0.501543
    7        8.470419      8.470419   0.000000   0.000000
    8        8.470419      8.470419   0.000000   0.000000
    9        9.308572      9.308572   0.000000   0.000000
   10        9.308572      9.308572   0.000000   0.000000
   11       14.615948     14.615948   0.000000   0.000000
   12       14.615948     14.615948   0.000000   0.000000
   13       15.546596     15.546596   0.000000   0.000000
   14       15.546596     15.546596   0.000000   0.000000
   15       16.190864     16.190864   0.000000   0.000000
   16       16.190864     16.190864   0.000000   0.000000
   17       16.342682     16.342682   0.000000   0.000000
   18       16.342682     16.342682   0.000000   0.000000
   19       19.221802     19.221802   0.000000   0.000000
   20       19.221802     19.221802   0.000000   0.000000
   21       23.538979     23.538979   0.000000   0.000000
   22       23.538979     23.538979   0.000000   0.000000
   23       23.731353     23.731353   0.000000   0.000000
   24       23.731353     23.731353   0.000000   0.000000
 
  0.5000000E+00  0.4225352E-01  0.4225352E-01  0.3472222E-02
    1       -0.851527     -0.851527   1.000000   1.000000
    2       -0.851527     -0.851527   1.000000   1.000000
    3        6.818121      6.818121   0.865689   0.865689
    4        6.818121      6.818121   0.865689   0.865689
    5        6.943653      6.943653   0.647496   0.647496
    6        6.943653      6.943653   0.647496   0.647496
    7        8.574067      8.574067   0.000000   0.000000
    8        8.574067      8.574067   0.000000   0.000000
    9        9.385605      9.385605   0.000000   0.000000
   10        9.385605      9.385605   0.000000   0.000000
   11       14.427827     14.427827   0.000000   0.000000
   12       14.427827     14.427827   0.000000   0.000000
   13       15.555144     15.555144   0.000000   0.000000
   14       15.555144     15.555144   0.000000   0.000000
   15       16.242252     16.242252   0.000000   0.000000
   16       16.242252     16.242252   0.000000   0.000000
   17       16.424247     16.424247   0.000000   0.000000
   18       16.424247     16.424247   0.000000   0.000000
   19       19.307750     19.307750   0.000000   0.000000
   20       19.307750     19.307750   0.000000   0.000000
   21       23.453412     23.453412   0.000000   0.000000
   22       23.453412     23.453412   0.000000   0.000000
   23       23.689507     23.689507   0.000000   0.000000
   24       23.689507     23.689507   0.000000   0.000000
 
  0.5000000E+00  0.4929577E-01  0.4929577E-01  0.3472222E-02
    1       -0.840023     -0.840023   1.000000   1.000000
    2       -0.840023     -0.840023   1.000000   1.000000
    3        6.729148      6.729148   0.940088   0.940088
    4        6.729148      6.729148   0.940088   0.940088
    5        6.877227      6.877227   0.781138   0.781138
    6        6.877227      6.877227   0.781138   0.781138
    7        8.684871      8.684871   0.000000   0.000000
    8        8.684871      8.684871   0.000000   0.000000
    9        9.471935      9.471935   0.000000   0.000000
   10        9.471935      9.471935   0.000000   0.000000
   11       14.237563     14.237563   0.000000   0.000000
   12       14.237563     14.237563   0.000000   0.000000
   13       15.565249     15.565249   0.000000   0.000000
   14       15.565249     15.565249   0.000000   0.000000
   15       16.267969     16.267969   0.000000   0.000000
   16       16.267969     16.267969   0.000000   0.000000
   17       16.524177     16.524177   0.000000   0.000000
   18       16.524177     16.524177   0.000000   0.000000
   19       19.408718     19.408718   0.000000   0.000000
   20       19.408718     19.408718   0.000000   0.000000
   21       23.366638     23.366638   0.000000   0.000000
   22       23.366638     23.366638   0.000000   0.000000
   23       23.642057     23.642057   0.000000   0.000000
   24       23.642057     23.642057   0.000000   0.000000
 
  0.5000000E+00  0.5633803E-01  0.5633803E-01  0.3472222E-02
    1       -0.826748     -0.826748   1.000000   1.000000
    2       -0.826748     -0.826748   1.000000   1.000000
    3        6.637894      6.637894   0.975051   0.975051
    4        6.637894      6.637894   0.975051   0.975051
    5        6.805869      6.805869   0.879307   0.879307
    6        6.805869      6.805869   0.879307   0.879307
    7        8.801311      8.801311   0.000000   0.000000
    8        8.801311      8.801311   0.000000   0.000000
    9        9.566254      9.566254   0.000000   0.000000
   10        9.566254      9.566254   0.000000   0.000000
   11       14.045596     14.045596   0.000000   0.000000
   12       14.045596     14.045596   0.000000   0.000000
   13       15.576908     15.576908   0.000000   0.000000
   14       15.576908     15.576908   0.000000   0.000000
   15       16.286492     16.286492   0.000000   0.000000
   16       16.286492     16.286492   0.000000   0.000000
   17       16.624094     16.624094   0.000000   0.000000
   18       16.624094     16.624094   0.000000   0.000000
   19       19.524133     19.524133   0.000000   0.000000
   20       19.524133     19.524133   0.000000   0.000000
   21       23.279525     23.279525   0.000000   0.000000
   22       23.279525     23.279525   0.000000   0.000000
   23       23.589726     23.589726   0.000000   0.000000
   24       23.589726     23.589726   0.000000   0.000000
 
  0.5000000E+00  0.6338028E-01  0.6338028E-01  0.3472222E-02
    1       -0.811707     -0.811707   1.000000   1.000000
    2       -0.811707     -0.811707   1.000000   1.000000
    3        6.545398      6.545398   0.989955   0.989955
    4        6.545398      6.545398   0.989955   0.989955
    5        6.730690      6.730690   0.939214   0.939214
    6        6.730690      6.730690   0.939214   0.939214
    7        8.922347      8.922347   0.000000   0.000000
    8        8.922347      8.922347   0.000000   0.000000
    9        9.667450      9.667450   0.000000   0.000000
   10        9.667450      9.667450   0.000000   0.000000
   11       13.852304     13.852304   0.000000   0.000000
   12       13.852304     13.852304   0.000000   0.000000
   13       15.590121     15.590121   0.000000   0.000000
   14       15.590121     15.590121   0.000000   0.000000
   15       16.303458     16.303458   0.000000   0.000000
   16       16.303458     16.303458   0.000000   0.000000
   17       16.718708     16.718708   0.000000   0.000000
   18       16.718708     16.718708   0.000000   0.000000
   19       19.653250     19.653250   0.000000   0.000000
   20       19.653250     19.653250   0.000000   0.000000
   21       23.192608     23.192608   0.000000   0.000000
   22       23.192608     23.192608   0.000000   0.000000
   23       23.533206     23.533206   0.000000   0.000000
   24       23.533206     23.533206   0.000000   0.000000
 
  0.5000000E+00  0.7042254E-01  0.7042254E-01  0.3472222E-02
    1       -0.794897     -0.794897   1.000000   1.000000
    2       -0.794897     -0.794897   1.000000   1.000000
    3        6.452384      6.452384   0.996013   0.996013
    4        6.452384      6.452384   0.996013   0.996013
    5        6.652615      6.652615   0.971207   0.971207
    6        6.652615      6.652615   0.971207   0.971207
    7        9.047254      9.047254   0.000000   0.000000
    8        9.047254      9.047254   0.000000   0.000000
    9        9.774593      9.774593   0.000000   0.000000
   10        9.774593      9.774593   0.000000   0.000000
   11       13.658017     13.658017   0.000000   0.000000
   12       13.658017     13.658017   0.000000   0.000000
   13       15.604887     15.604887   0.000000   0.000000
   14       15.604887     15.604887   0.000000   0.000000
   15       16.320613     16.320613   0.000000   0.000000
   16       16.320613     16.320613   0.000000   0.000000
   17       16.806817     16.806817   0.000000   0.000000
   18       16.806817     16.806817   0.000000   0.000000
   19       19.795172     19.795172   0.000000   0.000000
   20       19.795172     19.795172   0.000000   0.000000
   21       23.106229     23.106229   0.000000   0.000000
   22       23.106229     23.106229   0.000000   0.000000
   23       23.473140     23.473140   0.000000   0.000000
   24       23.473140     23.473140   0.000000   0.000000
 
  0.5000000E+00  0.7746479E-01  0.7746479E-01  0.3472222E-02
    1       -0.776322     -0.776322   1.000000   1.000000
    2       -0.776322     -0.776322   1.000000   1.000000
    3        6.359363      6.359363   0.998423   0.998423
    4        6.359363      6.359363   0.998423   0.998423
    5        6.572406      6.572406   0.986881   0.986881
    6        6.572406      6.572406   0.986881   0.986881
    7        9.175519      9.175519   0.000000   0.000000
    8        9.175519      9.175519   0.000000   0.000000
    9        9.886921      9.886921   0.000000   0.000000
   10        9.886921      9.886921   0.000000   0.000000
   11       13.463014     13.463014   0.000000   0.000000
   12       13.463014     13.463014   0.000000   0.000000
   13       15.621207     15.621207   0.000000   0.000000
   14       15.621207     15.621207   0.000000   0.000000
   15       16.338626     16.338626   0.000000   0.000000
   16       16.338626     16.338626   0.000000   0.000000
   17       16.888441     16.888441   0.000000   0.000000
   18       16.888441     16.888441   0.000000   0.000000
   19       19.948892     19.948892   0.000000   0.000000
   20       19.948892     19.948892   0.000000   0.000000
   21       23.020618     23.020618   0.000000   0.000000
   22       23.020618     23.020618   0.000000   0.000000
   23       23.410114     23.410114   0.000000   0.000000
   24       23.410114     23.410114   0.000000   0.000000
 
  0.5000000E+00  0.8450704E-01  0.8450704E-01  0.3472222E-02
    1       -0.755981     -0.755981   1.000000   1.000000
    2       -0.755981     -0.755981   1.000000   1.000000
    3        6.266704      6.266704   0.999375   0.999375
    4        6.266704      6.266704   0.999375   0.999375
    5        6.490684      6.490684   0.994163   0.994163
    6        6.490684      6.490684   0.994163   0.994163
    7        9.306770      9.306770   0.000000   0.000000
    8        9.306770      9.306770   0.000000   0.000000
    9       10.003806     10.003806   0.000000   0.000000
   10       10.003806     10.003806   0.000000   0.000000
   11       13.267549     13.267549   0.000000   0.000000
   12       13.267549     13.267549   0.000000   0.000000
   13       15.639082     15.639082   0.000000   0.000000
   14       15.639082     15.639082   0.000000   0.000000
   15       16.357800     16.357800   0.000000   0.000000
   16       16.357800     16.357800   0.000000   0.000000
   17       16.964060     16.964060   0.000000   0.000000
   18       16.964060     16.964060   0.000000   0.000000
   19       20.113352     20.113352   0.000000   0.000000
   20       20.113352     20.113352   0.000000   0.000000
   21       22.935932     22.935932   0.000000   0.000000
   22       22.935932     22.935932   0.000000   0.000000
   23       23.344654     23.344654   0.000000   0.000000
   24       23.344654     23.344654   0.000000   0.000000
 
  0.5000000E+00  0.9154930E-01  0.9154930E-01  0.3472222E-02
    1       -0.733874     -0.733874   1.000000   1.000000
    2       -0.733874     -0.733874   1.000000   1.000000
    3        6.174681      6.174681   0.999751   0.999751
    4        6.174681      6.174681   0.999751   0.999751
    5        6.407960      6.407960   0.997439   0.997439
    6        6.407960      6.407960   0.997439   0.997439
    7        9.440732      9.440732   0.000000   0.000000
    8        9.440732      9.440732   0.000000   0.000000
    9       10.124740     10.124741   0.000000   0.000000
   10       10.124740     10.124741   0.000000   0.000000
   11       13.071836     13.071836   0.000000   0.000000
   12       13.071836     13.071836   0.000000   0.000000
   13       15.658513     15.658513   0.000000   0.000000
   14       15.658513     15.658513   0.000000   0.000000
   15       16.378286     16.378286   0.000000   0.000000
   16       16.378286     16.378286   0.000000   0.000000
   17       17.034335     17.034335   0.000000   0.000000
   18       17.034335     17.034335   0.000000   0.000000
   19       20.287486     20.287486   0.000000   0.000000
   20       20.287486     20.287486   0.000000   0.000000
   21       22.852284     22.852284   0.000000   0.000000
   22       22.852284     22.852284   0.000000   0.000000
   23       23.277224     23.277224   0.000000   0.000000
   24       23.277224     23.277224   0.000000   0.000000
 
  0.5000000E+00  0.9859155E-01  0.9859155E-01  0.3472222E-02
    1       -0.710002     -0.710002   1.000000   1.000000
    2       -0.710002     -0.710002   1.000000   1.000000
    3        6.083496      6.083496   0.999900   0.999900
    4        6.083496      6.083496   0.999900   0.999900
    5        6.324641      6.324641   0.998885   0.998885
    6        6.324641      6.324641   0.998885   0.998885
    7        9.577198      9.577198   0.000000   0.000000
    8        9.577198      9.577198   0.000000   0.000000
    9       10.249297     10.249297   0.000000   0.000000
   10       10.249297     10.249297   0.000000   0.000000
   11       12.876061     12.876061   0.000000   0.000000
   12       12.876061     12.876061   0.000000   0.000000
   13       15.679496     15.679496   0.000000   0.000000
   14       15.679496     15.679496   0.000000   0.000000
   15       16.400167     16.400167   0.000000   0.000000
   16       16.400167     16.400167   0.000000   0.000000
   17       17.099977     17.099977   0.000000   0.000000
   18       17.099977     17.099977   0.000000   0.000000
   19       20.470260     20.470260   0.000000   0.000000
   20       20.470260     20.470260   0.000000   0.000000
   21       22.769752     22.769752   0.000000   0.000000
   22       22.769752     22.769752   0.000000   0.000000
   23       23.208231     23.208231   0.000000   0.000000
   24       23.208231     23.208231   0.000000   0.000000
 
  0.5000000E+00  0.1056338E+00  0.1056338E+00  0.3472222E-02
    1       -0.684367     -0.684367   1.000000   1.000000
    2       -0.684367     -0.684367   1.000000   1.000000
    3        5.993305      5.993305   0.999959   0.999959
    4        5.993305      5.993305   0.999959   0.999959
    5        6.241077      6.241077   0.999516   0.999516
    6        6.241077      6.241077   0.999516   0.999516
    7        9.716010      9.716010   0.000000   0.000000
    8        9.716010      9.716010   0.000000   0.000000
    9       10.377135     10.377135   0.000000   0.000000
   10       10.377135     10.377135   0.000000   0.000000
   11       12.680392     12.680392   0.000000   0.000000
   12       12.680392     12.680392   0.000000   0.000000
   13       15.702036     15.702036   0.000000   0.000000
   14       15.702036     15.702036   0.000000   0.000000
   15       16.423494     16.423494   0.000000   0.000000
   16       16.423494     16.423494   0.000000   0.000000
   17       17.161701     17.161701   0.000000   0.000000
   18       17.161701     17.161701   0.000000   0.000000
   19       20.660703     20.660703   0.000000   0.000000
   20       20.660703     20.660703   0.000000   0.000000
   21       22.688402     22.688402   0.000000   0.000000
   22       22.688402     22.688402   0.000000   0.000000
   23       23.138038     23.138038   0.000000   0.000000
   24       23.138038     23.138038   0.000000   0.000000
 
  0.5000000E+00  0.1126761E+00  0.1126761E+00  0.3472222E-02
    1       -0.656968     -0.656968   1.000000   1.000000
    2       -0.656968     -0.656968   1.000000   1.000000
    3        5.904228      5.904228   0.999983   0.999983
    4        5.904228      5.904228   0.999983   0.999983
    5        6.157546      6.157546   0.999790   0.999790
    6        6.157546      6.157546   0.999790   0.999790
    7        9.857044      9.857044   0.000000   0.000000
    8        9.857044      9.857044   0.000000   0.000000
    9       10.507967     10.507967   0.000000   0.000000
   10       10.507967     10.507967   0.000000   0.000000
   11       12.484972     12.484972   0.000000   0.000000
   12       12.484972     12.484972   0.000000   0.000000
   13       15.726134     15.726134   0.000000   0.000000
   14       15.726134     15.726134   0.000000   0.000000
   15       16.448297     16.448297   0.000000   0.000000
   16       16.448297     16.448297   0.000000   0.000000
   17       17.220170     17.220170   0.000000   0.000000
   18       17.220170     17.220170   0.000000   0.000000
   19       20.857925     20.857925   0.000000   0.000000
   20       20.857925     20.857925   0.000000   0.000000
   21       22.608278     22.608278   0.000000   0.000000
   22       22.608278     22.608278   0.000000   0.000000
   23       23.066953     23.066953   0.000000   0.000000
   24       23.066953     23.066953   0.000000   0.000000
 
  0.5000000E+00  0.1197183E+00  0.1197183E+00  0.3472222E-02
    1       -0.627807     -0.627807   1.000000   1.000000
    2       -0.627807     -0.627807   1.000000   1.000000
    3        5.816357      5.816357   0.999993   0.999993
    4        5.816357      5.816357   0.999993   0.999993
    5        6.074275      6.074275   0.999909   0.999909
    6        6.074275      6.074275   0.999909   0.999909
    7       10.000203     10.000203   0.000000   0.000000
    8       10.000203     10.000203   0.000000   0.000000
    9       10.641556     10.641556   0.000000   0.000000
   10       10.641556     10.641556   0.000000   0.000000
   11       12.289924     12.289924   0.000000   0.000000
   12       12.289924     12.289924   0.000000   0.000000
   13       15.751784     15.751784   0.000000   0.000000
   14       15.751784     15.751784   0.000000   0.000000
   15       16.474587     16.474587   0.000000   0.000000
   16       16.474587     16.474587   0.000000   0.000000
   17       17.275987     17.275987   0.000000   0.000000
   18       17.275987     17.275987   0.000000   0.000000
   19       21.061104     21.061104   0.000000   0.000000
   20       21.061104     21.061104   0.000000   0.000000
   21       22.529414     22.529414   0.000000   0.000000
   22       22.529414     22.529414   0.000000   0.000000
   23       22.995251     22.995251   0.000000   0.000000
   24       22.995251     22.995251   0.000000   0.000000
 
  0.5000000E+00  0.1267606E+00  0.1267606E+00  0.3472222E-02
    1       -0.596885     -0.596885   1.000000   1.000000
    2       -0.596885     -0.596885   1.000000   1.000000
    3        5.729768      5.729768   0.999997   0.999997
    4        5.729768      5.729768   0.999997   0.999997
    5        5.991461      5.991461   0.999960   0.999960
    6        5.991461      5.991461   0.999960   0.999960
    7       10.145408     10.145408   0.000000   0.000000
    8       10.145408     10.145408   0.000000   0.000000
    9       10.777703     10.777703   0.000000   0.000000
   10       10.777703     10.777703   0.000000   0.000000
   11       12.095360     12.095360   0.000000   0.000000
   12       12.095360     12.095360   0.000000   0.000000
   13       15.778989     15.778989   0.000000   0.000000
   14       15.778989     15.778989   0.000000   0.000000
   15       16.502378     16.502378   0.000000   0.000000
   16       16.502378     16.502378   0.000000   0.000000
   17       17.329688     17.329688   0.000000   0.000000
   18       17.329688     17.329688   0.000000   0.000000
   19       21.269508     21.269508   0.000000   0.000000
   20       21.269508     21.269508   0.000000   0.000000
   21       22.451837     22.451837   0.000000   0.000000
   22       22.451837     22.451837   0.000000   0.000000
   23       22.923167     22.923167   0.000000   0.000000
   24       22.923167     22.923167   0.000000   0.000000
 
  0.5000000E+00  0.1338028E+00  0.1338028E+00  0.3472222E-02
    1       -0.564203     -0.564203   1.000000   1.000000
    2       -0.564203     -0.564203   1.000000   1.000000
    3        5.644523      5.644523   0.999999   0.999999
    4        5.644523      5.644523   0.999999   0.999999
    5        5.909266      5.909266   0.999982   0.999982
    6        5.909266      5.909266   0.999982   0.999982
    7       10.292593     10.292593   0.000000   0.000000
    8       10.292593     10.292593   0.000000   0.000000
    9       10.916238     10.916238   0.000000   0.000000
   10       10.916238     10.916238   0.000000   0.000000
   11       11.901380     11.901380   0.000000   0.000000
   12       11.901380     11.901380   0.000000   0.000000
   13       15.807749     15.807749   0.000000   0.000000
   14       15.807749     15.807749   0.000000   0.000000
   15       16.531672     16.531672   0.000000   0.000000
   16       16.531672     16.531672   0.000000   0.000000
   17       17.381742     17.381742   0.000000   0.000000
   18       17.381742     17.381742   0.000000   0.000000
   19       21.482484     21.482484   0.000000   0.000000
   20       21.482484     21.482484   0.000000   0.000000
   21       22.375568     22.375568   0.000000   0.000000
   22       22.375568     22.375568   0.000000   0.000000
   23       22.850908     22.850908   0.000000   0.000000
   24       22.850908     22.850908   0.000000   0.000000
 
  0.5000000E+00  0.1408451E+00  0.1408451E+00  0.3472222E-02
    1       -0.529762     -0.529762   1.000000   1.000000
    2       -0.529762     -0.529762   1.000000   1.000000
    3        5.560670      5.560670   0.999999   0.999999
    4        5.560670      5.560670   0.999999   0.999999
    5        5.827827      5.827827   0.999992   0.999992
    6        5.827827      5.827827   0.999992   0.999992
    7       10.441707     10.441707   0.000000   0.000000
    8       10.441707     10.441707   0.000000   0.000000
    9       11.057018     11.057018   0.000000   0.000000
   10       11.057018     11.057018   0.000000   0.000000
   11       11.708070     11.708070   0.000000   0.000000