       N       E                     dE             d eps       ncg     rms          rms(c)
DAV:   1    -0.150095775599E+02   -0.15010E+02   -0.53658E-10  4244   0.187E-04    0.813E-05
DAV:   2    -0.150095775725E+02   -0.12556E-07   -0.10640E-10  4132   0.813E-05    0.453E-05
DAV:   3    -0.150095775884E+02   -0.15925E-07   -0.27377E-11  4056   0.381E-05    0.610E-06
DAV:   4    -0.150095775880E+02    0.45299E-09   -0.49276E-12  3936   0.165E-05    0.327E-06
DAV:   5    -0.150095775885E+02   -0.50738E-09   -0.11784E-12  3972   0.740E-06    0.157E-06
DAV:   6    -0.150095775898E+02   -0.13307E-08   -0.26812E-13  3896   0.376E-06
   1 F= -.15009578E+02 E0= -.14982381E+02  d E =-.150096E+02
       N       E                     dE             d eps       ncg     rms          rms(c)
DAV:   1    -0.150100965016E+02   -0.51891E-03   -0.16495E-03  7676   0.228E-01    0.357E-02
DAV:   2    -0.150100897233E+02    0.67783E-05   -0.13195E-05  7576   0.234E-02    0.138E-02
DAV:   3    -0.150100857874E+02    0.39359E-05   -0.12130E-06  4296   0.630E-03    0.473E-03
DAV:   4    -0.150100856689E+02    0.11849E-06   -0.40169E-07  3816   0.387E-03    0.245E-03
DAV:   5    -0.150100857573E+02   -0.88390E-07   -0.63396E-08  3776   0.213E-03    0.893E-04
DAV:   6    -0.150100857535E+02    0.37808E-08   -0.15356E-08  3752   0.786E-04
   2 F= -.15010086E+02 E0= -.14982939E+02  d E =-.508164E-03
       N       E                     dE             d eps       ncg     rms          rms(c)
DAV:   1    -0.150103154676E+02   -0.22971E-03   -0.23325E-03  7624   0.272E-01    0.424E-02
DAV:   2    -0.150103056728E+02    0.97948E-05   -0.18676E-05  7548   0.277E-02    0.163E-02
DAV:   3    -0.150102998904E+02    0.57823E-05   -0.16923E-06  4736   0.743E-03    0.570E-03
DAV:   4    -0.150102995540E+02    0.33644E-06   -0.56036E-07  3796   0.455E-03    0.288E-03
DAV:   5    -0.150102996583E+02   -0.10431E-06   -0.85474E-08  3732   0.244E-03    0.102E-03
DAV:   6    -0.150102996556E+02    0.26918E-08   -0.19918E-08  3696   0.906E-04
   3 F= -.15010300E+02 E0= -.14983212E+02  d E =-.722066E-03
