       N       E                     dE             d eps       ncg     rms          rms(c)
DAV:   1    -0.157757019159E+02   -0.15776E+02   -0.78342E+01 42008   0.115E+01    0.381E-01
DAV:   2    -0.161020359372E+02   -0.32633E+00   -0.30828E+00 33200   0.353E+00    0.258E-01
DAV:   3    -0.161040156392E+02   -0.19797E-02   -0.19994E-02 33264   0.390E-01    0.155E-01
DAV:   4    -0.161040128058E+02    0.28334E-05   -0.14069E-04 32448   0.378E-02    0.125E-01
DAV:   5    -0.161039960239E+02    0.16782E-04   -0.30807E-05 32344   0.229E-02    0.207E-02
DAV:   6    -0.161039972897E+02   -0.12658E-05   -0.45326E-07 33560   0.279E-03    0.135E-02
DAV:   7    -0.161039966043E+02    0.68540E-06   -0.18937E-08 32512   0.561E-04    0.532E-03
DAV:   8    -0.161039951812E+02    0.14231E-05   -0.12959E-07 31888   0.142E-03    0.578E-04
DAV:   9    -0.161039951950E+02   -0.13837E-07   -0.10324E-09 21216   0.126E-04    0.464E-04
DAV:  10    -0.161039952635E+02   -0.68495E-07   -0.34305E-10 18512   0.738E-05    0.173E-04
DAV:  11    -0.161039952919E+02   -0.28367E-07   -0.57827E-11 16784   0.327E-05    0.346E-05
DAV:  12    -0.161039952984E+02   -0.65307E-08   -0.51274E-12 16448   0.102E-05
   1 F= -.16103995E+02 E0= -.16068517E+02  d E =-.709567E-01  mag=     0.0000
