       N       E                     dE             d eps       ncg     rms          rms(c)
DAV:   1     0.930448199356E+01    0.93045E+01   -0.45892E+03  6864   0.864E+02
DAV:   2    -0.142660420314E+02   -0.23571E+02   -0.21957E+02  8480   0.102E+02
DAV:   3    -0.150925705399E+02   -0.82653E+00   -0.81162E+00  8972   0.158E+01
DAV:   4    -0.150991807126E+02   -0.66102E-02   -0.66023E-02  7788   0.165E+00
DAV:   5    -0.150992460192E+02   -0.65307E-04   -0.65305E-04  8496   0.184E-01    0.258E+00
DAV:   6    -0.150474041239E+02    0.51842E-01   -0.62976E-03  7644   0.525E-01    0.150E+00
DAV:   7    -0.150096899861E+02    0.37714E-01   -0.17873E-02  7528   0.828E-01    0.256E-01
DAV:   8    -0.150095867245E+02    0.10326E-03   -0.15254E-04  8732   0.938E-02    0.166E-02
DAV:   9    -0.150095800187E+02    0.67057E-05   -0.51648E-06  8048   0.134E-02    0.348E-03
DAV:  10    -0.150095779523E+02    0.20665E-05   -0.45736E-08  4984   0.195E-03    0.348E-03
DAV:  11    -0.150095775757E+02    0.37657E-06   -0.35173E-09  4396   0.495E-04
   1 F= -.15009578E+02 E0= -.14982381E+02  d E =-.543935E-01
