 vasp.5.4.1 05Feb16 (build Sep 29 2017 10:38:24) complex                        
  
 executed on           IFC91_ompi date 2021.04.01  18:44:37
 running on   44 total cores
 distrk:  each k-point on   44 cores,    1 groups
 distr:  one band on NCORES_PER_BAND=  11 cores,    4 groups


--------------------------------------------------------------------------------------------------------


 INCAR:
 POTCAR:    PAW_PBE Al 04Jan2001                  
 POTCAR:    PAW_PBE Al 04Jan2001                  
   VRHFIN =Al: s2p1                                                             
   LEXCH  = PE                                                                  
   EATOM  =    53.5387 eV,    3.9350 Ry                                         
                                                                                
   TITEL  = PAW_PBE Al 04Jan2001                                                
   LULTRA =        F    use ultrasoft PP ?                                      
   IUNSCR =        1    unscreen: 0-lin 1-nonlin 2-no                           
   RPACOR =    1.500    partial core radius                                     
   POMASS =   26.981; ZVAL   =    3.000    mass and valenz                      
   RCORE  =    1.900    outmost cutoff radius                                   
   RWIGS  =    2.650; RWIGS  =    1.402    wigner-seitz radius (au A)           
   ENMAX  =  240.300; ENMIN  =  180.225 eV                                      
   ICORE  =        2    local potential                                         
   LCOR   =        T    correct aug charges                                     
   LPAW   =        T    paw PP                                                  
   EAUG   =  291.052                                                            
   DEXC   =    0.000                                                            
   RMAX   =    1.939    core radius for proj-oper                               
   RAUG   =    1.300    factor for augmentation sphere                          
   RDEP   =    1.966    radius for radial grids                                 
   RDEPT  =    1.856    core radius for aug-charge                              
                                                                                
   Atomic configuration                                                         
    6 entries                                                                   
     n  l   j            E        occ.                                          
     1  0  0.50     -1511.1048   2.0000                                         
     2  0  0.50      -108.1629   2.0000                                         
     2  1  1.50       -69.6402   6.0000                                         
     3  0  0.50        -7.7528   2.0000                                         
     3  1  1.50        -2.7121   1.0000                                         
     3  2  2.50        -2.7212   0.0000                                         
   Description                                                                  
     l       E           TYP  RCUT    TYP  RCUT                                 
     0     -7.7528455     23  1.900                                             
     0     -3.3096929     23  1.900                                             
     1     -2.7120682     23  1.900                                             
     1     13.6058260     23  1.900                                             
     2     -2.7211652      7  1.900                                             
  local pseudopotential read in
  partial core-charges read in
  partial kinetic energy density read in
  atomic valenz-charges read in
  non local Contribution for L=           0  read in
    real space projection operators read in
  non local Contribution for L=           0  read in
    real space projection operators read in
  non local Contribution for L=           1  read in
    real space projection operators read in
  non local Contribution for L=           1  read in
    real space projection operators read in
    PAW grid and wavefunctions read in
 
   number of l-projection  operators is LMAX  =           4
   number of lm-projection operators is LMMAX =           8
 
  PAW_PBE Al 04Jan2001                  :
 energy of atom  1       EATOM=  -53.5387
 kinetic energy error for atom=    0.0002 (will be added to EATOM!!)
 
 
 POSCAR: Al                                      
  positions in direct lattice
  velocities in cartesian coordinates
 exchange correlation table for  LEXCH =        8
   RHO(1)=    0.500       N(1)  =     2000
   RHO(2)=  100.500       N(2)  =     4000
 


--------------------------------------------------------------------------------------------------------


 ion  position               nearest neighbor table
   1  0.000  0.000  0.000-   2 2.86   3 2.86   4 2.86   2 2.86   3 2.86   2 2.86   4 2.86   2 2.86
                             3 2.86   4 2.86   3 2.86   4 2.86
   2  0.000  0.500  0.500-   1 2.86   3 2.86   4 2.86   1 2.86   4 2.86   1 2.86   3 2.86   1 2.86
                             3 2.86   4 2.86   4 2.86   3 2.86
   3  0.500  0.000  0.500-   1 2.86   2 2.86   4 2.86   1 2.86   4 2.86   2 2.86   4 2.86   4 2.86
                             1 2.86   2 2.86   1 2.86   2 2.86
   4  0.500  0.500  0.000-   1 2.86   2 2.86   3 2.86   2 2.86   3 2.86   1 2.86   3 2.86   3 2.86
                             1 2.86   2 2.86   2 2.86   1 2.86
 
  LATTYP: Found a simple cubic cell.
 ALAT       =     4.0407093772
  
  Lattice vectors:
  
 A1 = (   4.0407093772,   0.0000000000,   0.0000000000)
 A2 = (   0.0000000000,   4.0407093772,   0.0000000000)
 A3 = (   0.0000000000,   0.0000000000,   4.0407093772)


Analysis of symmetry for initial positions (statically):
=====================================================================
 Subroutine PRICEL returns following result:
 
  LATTYP: Found a face centered cubic cell.
 ALAT       =     4.0407093772
  
  Lattice vectors:
  
 A1 = (   2.0203546886,   2.0203546886,   0.0000000000)
 A2 = (   2.0203546886,   0.0000000000,  -2.0203546886)
 A3 = (   0.0000000000,   2.0203546886,  -2.0203546886)
 
   4 primitive cells build up your supercell.
 

 Routine SETGRP: Setting up the symmetry group for a 
 simple cubic supercell.


 Subroutine GETGRP returns: Found 48 space group operations
 (whereof 48 operations were pure point group operations)
 out of a pool of 48 trial point group operations.


The static configuration has the point symmetry O_h .


Analysis of symmetry for dynamics (positions and initial velocities):
=====================================================================
 Subroutine PRICEL returns following result:
 
  LATTYP: Found a face centered cubic cell.
 ALAT       =     4.0407093772
  
  Lattice vectors:
  
 A1 = (   2.0203546886,   2.0203546886,   0.0000000000)
 A2 = (   2.0203546886,   0.0000000000,  -2.0203546886)
 A3 = (   0.0000000000,   2.0203546886,  -2.0203546886)
 
   4 primitive cells build up your supercell.
 

 Routine SETGRP: Setting up the symmetry group for a 
 simple cubic supercell.


 Subroutine GETGRP returns: Found 48 space group operations
 (whereof 48 operations were pure point group operations)
 out of a pool of 48 trial point group operations.


The dynamic configuration has the point symmetry O_h .


Analysis of structural, dynamic, and magnetic symmetry:
=====================================================================
 Subroutine PRICEL returns following result:
 
  LATTYP: Found a face centered cubic cell.
 ALAT       =     4.0407093772
  
  Lattice vectors:
  
 A1 = (   2.0203546886,   2.0203546886,   0.0000000000)
 A2 = (   2.0203546886,   0.0000000000,  -2.0203546886)
 A3 = (   0.0000000000,   2.0203546886,  -2.0203546886)
 
   4 primitive cells build up your supercell.
 

 Routine SETGRP: Setting up the symmetry group for a 
 simple cubic supercell.


 Subroutine GETGRP returns: Found 48 space group operations
 (whereof 48 operations were pure point group operations)
 out of a pool of 48 trial point group operations.


The magnetic configuration has the point symmetry O_h .


 Subroutine INISYM returns: Found 48 space group operations
 (whereof 48 operations are pure point group operations),
 and found     4 'primitive' translations

 
 
 KPOINTS: K-points                                
  interpolating k-points between supplied coordinates
  k-points in reciprocal lattice
Space group operators:
 irot       det(A)        alpha          n_x          n_y          n_z        tau_x        tau_y        tau_z
    1     1.000000     0.000001     1.000000     0.000000     0.000000     0.000000     0.000000     0.000000
    2    -1.000000     0.000001     1.000000     0.000000     0.000000     0.000000     0.000000     0.000000
    3     1.000000   120.000000    -0.577350    -0.577350    -0.577350     0.000000     0.000000     0.000000
    4    -1.000000   120.000000    -0.577350    -0.577350    -0.577350     0.000000     0.000000     0.000000
    5     1.000000   120.000000     0.577350     0.577350     0.577350     0.000000     0.000000     0.000000
    6    -1.000000   120.000000     0.577350     0.577350     0.577350     0.000000     0.000000     0.000000
    7     1.000000    90.000000     0.000000     0.000000    -1.000000     0.000000     0.000000     0.000000
    8    -1.000000    90.000000     0.000000     0.000000    -1.000000     0.000000     0.000000     0.000000
    9     1.000000   180.000000     0.000000     0.707107     0.707107     0.000000     0.000000     0.000000
   10    -1.000000   180.000000     0.000000     0.707107     0.707107     0.000000     0.000000     0.000000
   11     1.000000    90.000000     0.000000     1.000000     0.000000     0.000000     0.000000     0.000000
   12    -1.000000    90.000000     0.000000     1.000000     0.000000     0.000000     0.000000     0.000000
   13     1.000000   180.000000     0.000000     0.000000     1.000000     0.000000     0.000000     0.000000
   14    -1.000000   180.000000     0.000000     0.000000     1.000000     0.000000     0.000000     0.000000
   15     1.000000   120.000000    -0.577350     0.577350     0.577350     0.000000     0.000000     0.000000
   16    -1.000000   120.000000    -0.577350     0.577350     0.577350     0.000000     0.000000     0.000000
   17     1.000000   120.000000    -0.577350     0.577350    -0.577350     0.000000     0.000000     0.000000
   18    -1.000000   120.000000    -0.577350     0.577350    -0.577350     0.000000     0.000000     0.000000
   19     1.000000    90.000000     0.000000     0.000000     1.000000     0.000000     0.000000     0.000000
   20    -1.000000    90.000000     0.000000     0.000000     1.000000     0.000000     0.000000     0.000000
   21     1.000000    90.000000    -1.000000     0.000000     0.000000     0.000000     0.000000     0.000000
   22    -1.000000    90.000000    -1.000000     0.000000     0.000000     0.000000     0.000000     0.000000
   23     1.000000   180.000000     0.707107     0.000000     0.707107     0.000000     0.000000     0.000000
   24    -1.000000   180.000000     0.707107     0.000000     0.707107     0.000000     0.000000     0.000000
   25     1.000000   120.000000     0.577350    -0.577350     0.577350     0.000000     0.000000     0.000000
   26    -1.000000   120.000000     0.577350    -0.577350     0.577350     0.000000     0.000000     0.000000
   27     1.000000   120.000000    -0.577350    -0.577350     0.577350     0.000000     0.000000     0.000000
   28    -1.000000   120.000000    -0.577350    -0.577350     0.577350     0.000000     0.000000     0.000000
   29     1.000000   180.000000     1.000000     0.000000     0.000000     0.000000     0.000000     0.000000
   30    -1.000000   180.000000     1.000000     0.000000     0.000000     0.000000     0.000000     0.000000
   31     1.000000    90.000000     0.000000    -1.000000     0.000000     0.000000     0.000000     0.000000
   32    -1.000000    90.000000     0.000000    -1.000000     0.000000     0.000000     0.000000     0.000000
   33     1.000000   180.000000     0.707107     0.707107     0.000000     0.000000     0.000000     0.000000
   34    -1.000000   180.000000     0.707107     0.707107     0.000000     0.000000     0.000000     0.000000
   35     1.000000    90.000000     1.000000     0.000000     0.000000     0.000000     0.000000     0.000000
   36    -1.000000    90.000000     1.000000     0.000000     0.000000     0.000000     0.000000     0.000000
   37     1.000000   120.000000     0.577350    -0.577350    -0.577350     0.000000     0.000000     0.000000
   38    -1.000000   120.000000     0.577350    -0.577350    -0.577350     0.000000     0.000000     0.000000
   39     1.000000   180.000000     0.000000     1.000000     0.000000     0.000000     0.000000     0.000000
   40    -1.000000   180.000000     0.000000     1.000000     0.000000     0.000000     0.000000     0.000000
   41     1.000000   120.000000     0.577350     0.577350    -0.577350     0.000000     0.000000     0.000000
   42    -1.000000   120.000000     0.577350     0.577350    -0.577350     0.000000     0.000000     0.000000
   43     1.000000   180.000000     0.000000    -0.707107     0.707107     0.000000     0.000000     0.000000
   44    -1.000000   180.000000     0.000000    -0.707107     0.707107     0.000000     0.000000     0.000000
   45     1.000000   180.000000     0.707107    -0.707107     0.000000     0.000000     0.000000     0.000000
   46    -1.000000   180.000000     0.707107    -0.707107     0.000000     0.000000     0.000000     0.000000
   47     1.000000   180.000000     0.707107     0.000000    -0.707107     0.000000     0.000000     0.000000
   48    -1.000000   180.000000     0.707107     0.000000    -0.707107     0.000000     0.000000     0.000000


--------------------------------------------------------------------------------------------------------




 Dimension of arrays:
   k-points           NKPTS =    288   k-points in BZ     NKDIM =    288   number of bands    NBANDS=     24
   number of dos      NEDOS =    301   number of ions     NIONS =      4
   non local maximal  LDIM  =      4   non local SUM 2l+1 LMDIM =      8
   total plane-waves  NPLWV =  32768
   max r-space proj   IRMAX =      1   max aug-charges    IRDMAX=  19528
   dimension x,y,z NGX =    32 NGY =   32 NGZ =   32
   dimension x,y,z NGXF=    64 NGYF=   64 NGZF=   64
   support grid    NGXF=    64 NGYF=   64 NGZF=   64
   ions per type =               4
 NGX,Y,Z   is equivalent  to a cutoff of  13.17, 13.17, 13.17 a.u.
 NGXF,Y,Z  is equivalent  to a cutoff of  26.33, 26.33, 26.33 a.u.


 I would recommend the setting:
   dimension x,y,z NGX =    32 NGY =   32 NGZ =   32
 SYSTEM =  Al_225                                  
 POSCAR =  Al                                      

 Startparameter for this run:
   NWRITE =      2    write-flag & timer
   PREC   = accura    normal or accurate (medium, high low for compatibility)
   ISTART =      1    job   : 0-new  1-cont  2-samecut
   ICHARG =      1    charge: 1-file 2-atom 10-const
   ISPIN  =      2    spin polarized calculation?
   LNONCOLLINEAR =      F non collinear calculations
   LSORBIT =      F    spin-orbit coupling
   INIWAV =      1    electr: 0-lowe 1-rand  2-diag
   LASPH  =      F    aspherical Exc in radial PAW
   METAGGA=      F    non-selfconsistent MetaGGA calc.

 Electronic Relaxation 1
   ENCUT  =  600.0 eV  44.10 Ry    6.64 a.u.   8.07  8.07  8.07*2*pi/ulx,y,z
   ENINI  =  600.0     initial cutoff
   ENAUG  =  291.1 eV  augmentation charge cutoff
   NELM   =    100;   NELMIN=  2; NELMDL=  0     # of ELM steps 
   EDIFF  = 0.1E-07   stopping-criterion for ELM
   LREAL  =      F    real-space projection
   NLSPLINE    = F    spline interpolate recip. space projectors
   LCOMPAT=      F    compatible to vasp.4.4
   GGA_COMPAT  = T    GGA compatible to vasp.4.4-vasp.4.6
   LMAXPAW     = -100 max onsite density
   LMAXMIX     =    2 max onsite mixed and CHGCAR
   VOSKOWN=      0    Vosko Wilk Nusair interpolation
   ROPT   =    0.00000
 Ionic relaxation
   EDIFFG = 0.1E-06   stopping-criterion for IOM
   NSW    =      0    number of steps for IOM
   NBLOCK =      1;   KBLOCK =      1    inner block; outer block 
   IBRION =     -1    ionic relax: 0-MD 1-quasi-New 2-CG
   NFREE  =      6    steps in history (QN), initial steepest desc. (CG)
   ISIF   =      2    stress and relaxation
   IWAVPR =     10    prediction:  0-non 1-charg 2-wave 3-comb
   ISYM   =      2    0-nonsym 1-usesym 2-fastsym
   LCORR  =      T    Harris-Foulkes like correction to forces

   POTIM  = 0.5000    time-step for ionic-motion
   TEIN   =    0.0    initial temperature
   TEBEG  =    0.0;   TEEND  =   0.0 temperature during run
   SMASS  =  -3.00    Nose mass-parameter (am)
   estimated Nose-frequenzy (Omega)   =  0.10E-29 period in steps =****** mass=  -0.373E-27a.u.
   SCALEE = 1.0000    scale energy and forces
   NPACO  =    256;   APACO  = 16.0  distance and # of slots for P.C.
   PSTRESS=    0.0 pullay stress

  Mass of Ions in am
   POMASS =  26.98
  Ionic Valenz
   ZVAL   =   3.00
  Atomic Wigner-Seitz radii
   RWIGS  =  -1.00
  virtual crystal weights 
   VCA    =   1.00
   NELECT =      12.0000    total number of electrons
   NUPDOWN=      -1.0000    fix difference up-down

 DOS related values:
   EMIN   =  10.00;   EMAX   =-10.00  energy-range for DOS
   EFERMI =   0.00
   ISMEAR =    -1;   SIGMA  =   0.10  broadening in eV -4-tet -1-fermi 0-gaus

 Electronic relaxation 2 (details)
   IALGO  =     38    algorithm
   LDIAG  =      T    sub-space diagonalisation (order eigenvalues)
   LSUBROT=      F    optimize rotation matrix (better conditioning)
   TURBO    =      0    0=normal 1=particle mesh
   IRESTART =      0    0=no restart 2=restart with 2 vectors
   NREBOOT  =      0    no. of reboots
   NMIN     =      0    reboot dimension
   EREF     =   0.00    reference energy to select bands
   IMIX   =      4    mixing-type and parameters
     AMIX     =   0.40;   BMIX     =  1.00
     AMIX_MAG =   1.60;   BMIX_MAG =  1.00
     AMIN     =   0.10
     WC   =   100.;   INIMIX=   1;  MIXPRE=   1;  MAXMIX= -45

 Intra band minimization:
   WEIMIN = 0.0000     energy-eigenvalue tresh-hold
   EBREAK =  0.10E-09  absolut break condition
   DEPER  =   0.30     relativ break condition  

   TIME   =   0.40     timestep for ELM

  volume/ion in A,a.u.               =      16.49       111.30
  Fermi-wavevector in a.u.,A,eV,Ry     =   0.927565  1.752843 11.706134  0.860377
  Thomas-Fermi vector in A             =   2.053648
 
 Write flags
   LWAVE  =      T    write WAVECAR
   LCHARG =      T    write CHGCAR
   LVTOT  =      F    write LOCPOT, total local potential
   LVHAR  =      F    write LOCPOT, Hartree potential only
   LELF   =      F    write electronic localiz. function (ELF)
   LORBIT =      0    0 simple, 1 ext, 2 COOP (PROOUT)


 Dipole corrections
   LMONO  =      F    monopole corrections only (constant potential shift)
   LDIPOL =      F    correct potential (dipole corrections)
   IDIPOL =      0    1-x, 2-y, 3-z, 4-all directions 
   EPSILON=  1.0000000 bulk dielectric constant

 Exchange correlation treatment:
   GGA     =    PE    GGA type
   LEXCH   =     8    internal setting for exchange type
   VOSKOWN=      0    Vosko Wilk Nusair interpolation
   LHFCALC =     F    Hartree Fock is set to
   LHFONE  =     F    Hartree Fock one center treatment
   AEXX    =    0.0000 exact exchange contribution

 Linear response parameters
   LEPSILON=     F    determine dielectric tensor
   LRPA    =     F    only Hartree local field effects (RPA)
   LNABLA  =     F    use nabla operator in PAW spheres
   LVEL    =     F    velocity operator in full k-point grid
   LINTERFAST=   F  fast interpolation
   KINTER  =     0    interpolate to denser k-point grid
   CSHIFT  =0.1000    complex shift for real part using Kramers Kronig
   OMEGAMAX=  -1.0    maximum frequency
   DEG_THRESHOLD= 0.2000000E-02 threshold for treating states as degnerate
   RTIME   =    0.100 relaxation time in fs

 Orbital magnetization related:
   ORBITALMAG=     F  switch on orbital magnetization
   LCHIMAG   =     F  perturbation theory with respect to B field
   DQ        =  0.001000  dq finite difference perturbation B field



--------------------------------------------------------------------------------------------------------


 Static calculation
 charge density and potential will be updated during run
 spin polarized calculation
 Variant of blocked Davidson
 Davidson routine will perform the subspace rotation
 perform sub-space diagonalisation
    after iterative eigenvector-optimisation
 modified Broyden-mixing scheme, WC =      100.0
 initial mixing is a Kerker type mixing with AMIX =  0.4000 and BMIX =      1.0000
 Hartree-type preconditioning will be used
 using additional bands           18
 reciprocal scheme for non local part
 use partial core corrections
 calculate Harris-corrections to forces 
   (improved forces if not selfconsistent)
 use gradient corrections 
 use of overlap-Matrix (Vanderbilt PP)
 Fermi-smearing in eV        SIGMA  =   0.10


--------------------------------------------------------------------------------------------------------


  energy-cutoff  :      600.00
  volume of cell :       65.97
      direct lattice vectors                 reciprocal lattice vectors
     4.040709377  0.000000000  0.000000000     0.247481298  0.000000000  0.000000000
     0.000000000  4.040709377  0.000000000     0.000000000  0.247481298  0.000000000
     0.000000000  0.000000000  4.040709377     0.000000000  0.000000000  0.247481298

  length of vectors
     4.040709377  4.040709377  4.040709377     0.247481298  0.247481298  0.247481298


 
 old parameters found on file WAVECAR:
  energy-cutoff  :      600.00
  volume of cell :       65.97
      direct lattice vectors                 reciprocal lattice vectors
     4.040709377  0.000000000  0.000000000     0.247481298  0.000000000  0.000000000
     0.000000000  4.040709377  0.000000000     0.000000000  0.247481298  0.000000000
     0.000000000  0.000000000  4.040709377     0.000000000  0.000000000  0.247481298

  length of vectors

 
 k-points in units of 2pi/SCALE and weight: K-points                                
   0.12374065  0.00000000  0.00000000       0.003
   0.12374065  0.00174283  0.00174283       0.003
   0.12374065  0.00348565  0.00348565       0.003
   0.12374065  0.00522848  0.00522848       0.003
   0.12374065  0.00697130  0.00697130       0.003
   0.12374065  0.00871413  0.00871413       0.003
   0.12374065  0.01045696  0.01045696       0.003
   0.12374065  0.01219978  0.01219978       0.003
   0.12374065  0.01394261  0.01394261       0.003
   0.12374065  0.01568543  0.01568543       0.003
   0.12374065  0.01742826  0.01742826       0.003
   0.12374065  0.01917109  0.01917109       0.003
   0.12374065  0.02091391  0.02091391       0.003
   0.12374065  0.02265674  0.02265674       0.003
   0.12374065  0.02439956  0.02439956       0.003
   0.12374065  0.02614239  0.02614239       0.003
   0.12374065  0.02788522  0.02788522       0.003
   0.12374065  0.02962804  0.02962804       0.003
   0.12374065  0.03137087  0.03137087       0.003
   0.12374065  0.03311369  0.03311369       0.003
   0.12374065  0.03485652  0.03485652       0.003
   0.12374065  0.03659935  0.03659935       0.003
   0.12374065  0.03834217  0.03834217       0.003
   0.12374065  0.04008500  0.04008500       0.003
   0.12374065  0.04182782  0.04182782       0.003
   0.12374065  0.04357065  0.04357065       0.003
   0.12374065  0.04531348  0.04531348       0.003
   0.12374065  0.04705630  0.04705630       0.003
   0.12374065  0.04879913  0.04879913       0.003
   0.12374065  0.05054196  0.05054196       0.003
   0.12374065  0.05228478  0.05228478       0.003
   0.12374065  0.05402761  0.05402761       0.003
   0.12374065  0.05577043  0.05577043       0.003
   0.12374065  0.05751326  0.05751326       0.003
   0.12374065  0.05925609  0.05925609       0.003
   0.12374065  0.06099891  0.06099891       0.003
   0.12374065  0.06274174  0.06274174       0.003
   0.12374065  0.06448456  0.06448456       0.003
   0.12374065  0.06622739  0.06622739       0.003
   0.12374065  0.06797022  0.06797022       0.003
   0.12374065  0.06971304  0.06971304       0.003
   0.12374065  0.07145587  0.07145587       0.003
   0.12374065  0.07319869  0.07319869       0.003
   0.12374065  0.07494152  0.07494152       0.003
   0.12374065  0.07668435  0.07668435       0.003
   0.12374065  0.07842717  0.07842717       0.003
   0.12374065  0.08017000  0.08017000       0.003
   0.12374065  0.08191282  0.08191282       0.003
   0.12374065  0.08365565  0.08365565       0.003
   0.12374065  0.08539848  0.08539848       0.003
   0.12374065  0.08714130  0.08714130       0.003
   0.12374065  0.08888413  0.08888413       0.003
   0.12374065  0.09062695  0.09062695       0.003
   0.12374065  0.09236978  0.09236978       0.003
   0.12374065  0.09411261  0.09411261       0.003
   0.12374065  0.09585543  0.09585543       0.003
   0.12374065  0.09759826  0.09759826       0.003
   0.12374065  0.09934108  0.09934108       0.003
   0.12374065  0.10108391  0.10108391       0.003
   0.12374065  0.10282674  0.10282674       0.003
   0.12374065  0.10456956  0.10456956       0.003
   0.12374065  0.10631239  0.10631239       0.003
   0.12374065  0.10805521  0.10805521       0.003
   0.12374065  0.10979804  0.10979804       0.003
   0.12374065  0.11154087  0.11154087       0.003
   0.12374065  0.11328369  0.11328369       0.003
   0.12374065  0.11502652  0.11502652       0.003
   0.12374065  0.11676934  0.11676934       0.003
   0.12374065  0.11851217  0.11851217       0.003
   0.12374065  0.12025500  0.12025500       0.003
   0.12374065  0.12199782  0.12199782       0.003
   0.12374065  0.12374065  0.12374065       0.003
   0.12374065  0.12374065  0.12374065       0.003
   0.12199782  0.12374065  0.12199782       0.003
   0.12025500  0.12374065  0.12025500       0.003
   0.11851217  0.12374065  0.11851217       0.003
   0.11676934  0.12374065  0.11676934       0.003
   0.11502652  0.12374065  0.11502652       0.003
   0.11328369  0.12374065  0.11328369       0.003
   0.11154087  0.12374065  0.11154087       0.003
   0.10979804  0.12374065  0.10979804       0.003
   0.10805521  0.12374065  0.10805521       0.003
   0.10631239  0.12374065  0.10631239       0.003
   0.10456956  0.12374065  0.10456956       0.003
   0.10282674  0.12374065  0.10282674       0.003
   0.10108391  0.12374065  0.10108391       0.003
   0.09934108  0.12374065  0.09934108       0.003
   0.09759826  0.12374065  0.09759826       0.003
   0.09585543  0.12374065  0.09585543       0.003
   0.09411261  0.12374065  0.09411261       0.003
   0.09236978  0.12374065  0.09236978       0.003
   0.09062695  0.12374065  0.09062695       0.003
   0.08888413  0.12374065  0.08888413       0.003
   0.08714130  0.12374065  0.08714130       0.003
   0.08539848  0.12374065  0.08539848       0.003
   0.08365565  0.12374065  0.08365565       0.003
   0.08191282  0.12374065  0.08191282       0.003
   0.08017000  0.12374065  0.08017000       0.003
   0.07842717  0.12374065  0.07842717       0.003
   0.07668435  0.12374065  0.07668435       0.003
   0.07494152  0.12374065  0.07494152       0.003
   0.07319869  0.12374065  0.07319869       0.003
   0.07145587  0.12374065  0.07145587       0.003
   0.06971304  0.12374065  0.06971304       0.003
   0.06797022  0.12374065  0.06797022       0.003
   0.06622739  0.12374065  0.06622739       0.003
   0.06448456  0.12374065  0.06448456       0.003
   0.06274174  0.12374065  0.06274174       0.003
   0.06099891  0.12374065  0.06099891       0.003
   0.05925609  0.12374065  0.05925609       0.003
   0.05751326  0.12374065  0.05751326       0.003
   0.05577043  0.12374065  0.05577043       0.003
   0.05402761  0.12374065  0.05402761       0.003
   0.05228478  0.12374065  0.05228478       0.003
   0.05054196  0.12374065  0.05054196       0.003
   0.04879913  0.12374065  0.04879913       0.003
   0.04705630  0.12374065  0.04705630       0.003
   0.04531348  0.12374065  0.04531348       0.003
   0.04357065  0.12374065  0.04357065       0.003
   0.04182782  0.12374065  0.04182782       0.003
   0.04008500  0.12374065  0.04008500       0.003
   0.03834217  0.12374065  0.03834217       0.003
   0.03659935  0.12374065  0.03659935       0.003
   0.03485652  0.12374065  0.03485652       0.003
   0.03311369  0.12374065  0.03311369       0.003
   0.03137087  0.12374065  0.03137087       0.003
   0.02962804  0.12374065  0.02962804       0.003
   0.02788522  0.12374065  0.02788522       0.003
   0.02614239  0.12374065  0.02614239       0.003
   0.02439956  0.12374065  0.02439956       0.003
   0.02265674  0.12374065  0.02265674       0.003
   0.02091391  0.12374065  0.02091391       0.003
   0.01917109  0.12374065  0.01917109       0.003
   0.01742826  0.12374065  0.01742826       0.003
   0.01568543  0.12374065  0.01568543       0.003
   0.01394261  0.12374065  0.01394261       0.003
   0.01219978  0.12374065  0.01219978       0.003
   0.01045696  0.12374065  0.01045696       0.003
   0.00871413  0.12374065  0.00871413       0.003
   0.00697130  0.12374065  0.00697130       0.003
   0.00522848  0.12374065  0.00522848       0.003
   0.00348565  0.12374065  0.00348565       0.003
   0.00174283  0.12374065  0.00174283       0.003
   0.00000000  0.12374065  0.00000000       0.003
   0.00000000  0.12374065  0.00000000       0.003
   0.00000000  0.12199782  0.00000000       0.003
   0.00000000  0.12025500  0.00000000       0.003
   0.00000000  0.11851217  0.00000000       0.003
   0.00000000  0.11676934  0.00000000       0.003
   0.00000000  0.11502652  0.00000000       0.003
   0.00000000  0.11328369  0.00000000       0.003
   0.00000000  0.11154087  0.00000000       0.003
   0.00000000  0.10979804  0.00000000       0.003
   0.00000000  0.10805521  0.00000000       0.003
   0.00000000  0.10631239  0.00000000       0.003
   0.00000000  0.10456956  0.00000000       0.003
   0.00000000  0.10282674  0.00000000       0.003
   0.00000000  0.10108391  0.00000000       0.003
   0.00000000  0.09934108  0.00000000       0.003
   0.00000000  0.09759826  0.00000000       0.003
   0.00000000  0.09585543  0.00000000       0.003
   0.00000000  0.09411261  0.00000000       0.003
   0.00000000  0.09236978  0.00000000       0.003
   0.00000000  0.09062695  0.00000000       0.003
   0.00000000  0.08888413  0.00000000       0.003
   0.00000000  0.08714130  0.00000000       0.003
   0.00000000  0.08539848  0.00000000       0.003
   0.00000000  0.08365565  0.00000000       0.003
   0.00000000  0.08191282  0.00000000       0.003
   0.00000000  0.08017000  0.00000000       0.003
   0.00000000  0.07842717  0.00000000       0.003
   0.00000000  0.07668435  0.00000000       0.003
   0.00000000  0.07494152  0.00000000       0.003
   0.00000000  0.07319869  0.00000000       0.003
   0.00000000  0.07145587  0.00000000       0.003
   0.00000000  0.06971304  0.00000000       0.003
   0.00000000  0.06797022  0.00000000       0.003
   0.00000000  0.06622739  0.00000000       0.003
   0.00000000  0.06448456  0.00000000       0.003
   0.00000000  0.06274174  0.00000000       0.003
   0.00000000  0.06099891  0.00000000       0.003
   0.00000000  0.05925609  0.00000000       0.003
   0.00000000  0.05751326  0.00000000       0.003
   0.00000000  0.05577043  0.00000000       0.003
   0.00000000  0.05402761  0.00000000       0.003
   0.00000000  0.05228478  0.00000000       0.003
   0.00000000  0.05054196  0.00000000       0.003
   0.00000000  0.04879913  0.00000000       0.003
   0.00000000  0.04705630  0.00000000       0.003
   0.00000000  0.04531348  0.00000000       0.003
   0.00000000  0.04357065  0.00000000       0.003
   0.00000000  0.04182782  0.00000000       0.003
   0.00000000  0.04008500  0.00000000       0.003
   0.00000000  0.03834217  0.00000000       0.003
   0.00000000  0.03659935  0.00000000       0.003
   0.00000000  0.03485652  0.00000000       0.003
   0.00000000  0.03311369  0.00000000       0.003
   0.00000000  0.03137087  0.00000000       0.003
   0.00000000  0.02962804  0.00000000       0.003
   0.00000000  0.02788522  0.00000000       0.003
   0.00000000  0.02614239  0.00000000       0.003
   0.00000000  0.02439956  0.00000000       0.003
   0.00000000  0.02265674  0.00000000       0.003
   0.00000000  0.02091391  0.00000000       0.003
   0.00000000  0.01917109  0.00000000       0.003
   0.00000000  0.01742826  0.00000000       0.003
   0.00000000  0.01568543  0.00000000       0.003
   0.00000000  0.01394261  0.00000000       0.003
   0.00000000  0.01219978  0.00000000       0.003
   0.00000000  0.01045696  0.00000000       0.003
   0.00000000  0.00871413  0.00000000       0.003
   0.00000000  0.00697130  0.00000000       0.003
   0.00000000  0.00522848  0.00000000       0.003
   0.00000000  0.00348565  0.00000000       0.003
   0.00000000  0.00174283  0.00000000       0.003
   0.00000000  0.00000000  0.00000000       0.003
   0.00000000  0.00000000  0.00000000       0.003
   0.00174283  0.00174283  0.00174283       0.003
   0.00348565  0.00348565  0.00348565       0.003
   0.00522848  0.00522848  0.00522848       0.003
   0.00697130  0.00697130  0.00697130       0.003
   0.00871413  0.00871413  0.00871413       0.003
   0.01045696  0.01045696  0.01045696       0.003
   0.01219978  0.01219978  0.01219978       0.003
   0.01394261  0.01394261  0.01394261       0.003
   0.01568543  0.01568543  0.01568543       0.003
   0.01742826  0.01742826  0.01742826       0.003
   0.01917109  0.01917109  0.01917109       0.003
   0.02091391  0.02091391  0.02091391       0.003
   0.02265674  0.02265674  0.02265674       0.003
   0.02439956  0.02439956  0.02439956       0.003
   0.02614239  0.02614239  0.02614239       0.003
   0.02788522  0.02788522  0.02788522       0.003
   0.02962804  0.02962804  0.02962804       0.003
   0.03137087  0.03137087  0.03137087       0.003
   0.03311369  0.03311369  0.03311369       0.003
   0.03485652  0.03485652  0.03485652       0.003
   0.03659935  0.03659935  0.03659935       0.003
   0.03834217  0.03834217  0.03834217       0.003
   0.04008500  0.04008500  0.04008500       0.003
   0.04182782  0.04182782  0.04182782       0.003
   0.04357065  0.04357065  0.04357065       0.003
   0.04531348  0.04531348  0.04531348       0.003
   0.04705630  0.04705630  0.04705630       0.003
   0.04879913  0.04879913  0.04879913       0.003
   0.05054196  0.05054196  0.05054196       0.003
   0.05228478  0.05228478  0.05228478       0.003
   0.05402761  0.05402761  0.05402761       0.003
   0.05577043  0.05577043  0.05577043       0.003
   0.05751326  0.05751326  0.05751326       0.003
   0.05925609  0.05925609  0.05925609       0.003
   0.06099891  0.06099891  0.06099891       0.003
   0.06274174  0.06274174  0.06274174       0.003
   0.06448456  0.06448456  0.06448456       0.003
   0.06622739  0.06622739  0.06622739       0.003
   0.06797022  0.06797022  0.06797022       0.003
   0.06971304  0.06971304  0.06971304       0.003
   0.07145587  0.07145587  0.07145587       0.003
   0.07319869  0.07319869  0.07319869       0.003
   0.07494152  0.07494152  0.07494152       0.003
   0.07668435  0.07668435  0.07668435       0.003
   0.07842717  0.07842717  0.07842717       0.003
   0.08017000  0.08017000  0.08017000       0.003
   0.08191282  0.08191282  0.08191282       0.003
   0.08365565  0.08365565  0.08365565       0.003
   0.08539848  0.08539848  0.08539848       0.003
   0.08714130  0.08714130  0.08714130       0.003
   0.08888413  0.08888413  0.08888413       0.003
   0.09062695  0.09062695  0.09062695       0.003
   0.09236978  0.09236978  0.09236978       0.003
   0.09411261  0.09411261  0.09411261       0.003
   0.09585543  0.09585543  0.09585543       0.003
   0.09759826  0.09759826  0.09759826       0.003
   0.09934108  0.09934108  0.09934108       0.003
   0.10108391  0.10108391  0.10108391       0.003
   0.10282674  0.10282674  0.10282674       0.003
   0.10456956  0.10456956  0.10456956       0.003
   0.10631239  0.10631239  0.10631239       0.003
   0.10805521  0.10805521  0.10805521       0.003
   0.10979804  0.10979804  0.10979804       0.003
   0.11154087  0.11154087  0.11154087       0.003
   0.11328369  0.11328369  0.11328369       0.003
   0.11502652  0.11502652  0.11502652       0.003
   0.11676934  0.11676934  0.11676934       0.003
   0.11851217  0.11851217  0.11851217       0.003
   0.12025500  0.12025500  0.12025500       0.003
   0.12199782  0.12199782  0.12199782       0.003
   0.12374065  0.12374065  0.12374065       0.003
 
 k-points in reciprocal lattice and weights: K-points                                
   0.50000000  0.00000000  0.00000000       0.003
   0.50000000  0.00704225  0.00704225       0.003
   0.50000000  0.01408451  0.01408451       0.003
   0.50000000  0.02112676  0.02112676       0.003
   0.50000000  0.02816901  0.02816901       0.003
   0.50000000  0.03521127  0.03521127       0.003
   0.50000000  0.04225352  0.04225352       0.003
   0.50000000  0.04929577  0.04929577       0.003
   0.50000000  0.05633803  0.05633803       0.003
   0.50000000  0.06338028  0.06338028       0.003
   0.50000000  0.07042254  0.07042254       0.003
   0.50000000  0.07746479  0.07746479       0.003
   0.50000000  0.08450704  0.08450704       0.003
   0.50000000  0.09154930  0.09154930       0.003
   0.50000000  0.09859155  0.09859155       0.003
   0.50000000  0.10563380  0.10563380       0.003
   0.50000000  0.11267606  0.11267606       0.003
   0.50000000  0.11971831  0.11971831       0.003
   0.50000000  0.12676056  0.12676056       0.003
   0.50000000  0.13380282  0.13380282       0.003
   0.50000000  0.14084507  0.14084507       0.003
   0.50000000  0.14788732  0.14788732       0.003
   0.50000000  0.15492958  0.15492958       0.003
   0.50000000  0.16197183  0.16197183       0.003
   0.50000000  0.16901408  0.16901408       0.003
   0.50000000  0.17605634  0.17605634       0.003
   0.50000000  0.18309859  0.18309859       0.003
   0.50000000  0.19014085  0.19014085       0.003
   0.50000000  0.19718310  0.19718310       0.003
   0.50000000  0.20422535  0.20422535       0.003
   0.50000000  0.21126761  0.21126761       0.003
   0.50000000  0.21830986  0.21830986       0.003
   0.50000000  0.22535211  0.22535211       0.003
   0.50000000  0.23239437  0.23239437       0.003
   0.50000000  0.23943662  0.23943662       0.003
   0.50000000  0.24647887  0.24647887       0.003
   0.50000000  0.25352113  0.25352113       0.003
   0.50000000  0.26056338  0.26056338       0.003
   0.50000000  0.26760563  0.26760563       0.003
   0.50000000  0.27464789  0.27464789       0.003
   0.50000000  0.28169014  0.28169014       0.003
   0.50000000  0.28873239  0.28873239       0.003
   0.50000000  0.29577465  0.29577465       0.003
   0.50000000  0.30281690  0.30281690       0.003
   0.50000000  0.30985915  0.30985915       0.003
   0.50000000  0.31690141  0.31690141       0.003
   0.50000000  0.32394366  0.32394366       0.003
   0.50000000  0.33098592  0.33098592       0.003
   0.50000000  0.33802817  0.33802817       0.003
   0.50000000  0.34507042  0.34507042       0.003
   0.50000000  0.35211268  0.35211268       0.003
   0.50000000  0.35915493  0.35915493       0.003
   0.50000000  0.36619718  0.36619718       0.003
   0.50000000  0.37323944  0.37323944       0.003
   0.50000000  0.38028169  0.38028169       0.003
   0.50000000  0.38732394  0.38732394       0.003
   0.50000000  0.39436620  0.39436620       0.003
   0.50000000  0.40140845  0.40140845       0.003
   0.50000000  0.40845070  0.40845070       0.003
   0.50000000  0.41549296  0.41549296       0.003
   0.50000000  0.42253521  0.42253521       0.003
   0.50000000  0.42957746  0.42957746       0.003
   0.50000000  0.43661972  0.43661972       0.003
   0.50000000  0.44366197  0.44366197       0.003
   0.50000000  0.45070423  0.45070423       0.003
   0.50000000  0.45774648  0.45774648       0.003
   0.50000000  0.46478873  0.46478873       0.003
   0.50000000  0.47183099  0.47183099       0.003
   0.50000000  0.47887324  0.47887324       0.003
   0.50000000  0.48591549  0.48591549       0.003
   0.50000000  0.49295775  0.49295775       0.003
   0.50000000  0.50000000  0.50000000       0.003
   0.50000000  0.50000000  0.50000000       0.003
   0.49295775  0.50000000  0.49295775       0.003
   0.48591549  0.50000000  0.48591549       0.003
   0.47887324  0.50000000  0.47887324       0.003
   0.47183099  0.50000000  0.47183099       0.003
   0.46478873  0.50000000  0.46478873       0.003
   0.45774648  0.50000000  0.45774648       0.003
   0.45070423  0.50000000  0.45070423       0.003
   0.44366197  0.50000000  0.44366197       0.003
   0.43661972  0.50000000  0.43661972       0.003
   0.42957746  0.50000000  0.42957746       0.003
   0.42253521  0.50000000  0.42253521       0.003
   0.41549296  0.50000000  0.41549296       0.003
   0.40845070  0.50000000  0.40845070       0.003
   0.40140845  0.50000000  0.40140845       0.003
   0.39436620  0.50000000  0.39436620       0.003
   0.38732394  0.50000000  0.38732394       0.003
   0.38028169  0.50000000  0.38028169       0.003
   0.37323944  0.50000000  0.37323944       0.003
   0.36619718  0.50000000  0.36619718       0.003
   0.35915493  0.50000000  0.35915493       0.003
   0.35211268  0.50000000  0.35211268       0.003
   0.34507042  0.50000000  0.34507042       0.003
   0.33802817  0.50000000  0.33802817       0.003
   0.33098592  0.50000000  0.33098592       0.003
   0.32394366  0.50000000  0.32394366       0.003
   0.31690141  0.50000000  0.31690141       0.003
   0.30985915  0.50000000  0.30985915       0.003
   0.30281690  0.50000000  0.30281690       0.003
   0.29577465  0.50000000  0.29577465       0.003
   0.28873239  0.50000000  0.28873239       0.003
   0.28169014  0.50000000  0.28169014       0.003
   0.27464789  0.50000000  0.27464789       0.003
   0.26760563  0.50000000  0.26760563       0.003
   0.26056338  0.50000000  0.26056338       0.003
   0.25352113  0.50000000  0.25352113       0.003
   0.24647887  0.50000000  0.24647887       0.003
   0.23943662  0.50000000  0.23943662       0.003
   0.23239437  0.50000000  0.23239437       0.003
   0.22535211  0.50000000  0.22535211       0.003
   0.21830986  0.50000000  0.21830986       0.003
   0.21126761  0.50000000  0.21126761       0.003
   0.20422535  0.50000000  0.20422535       0.003
   0.19718310  0.50000000  0.19718310       0.003
   0.19014085  0.50000000  0.19014085       0.003
   0.18309859  0.50000000  0.18309859       0.003
   0.17605634  0.50000000  0.17605634       0.003
   0.16901408  0.50000000  0.16901408       0.003
   0.16197183  0.50000000  0.16197183       0.003
   0.15492958  0.50000000  0.15492958       0.003
   0.14788732  0.50000000  0.14788732       0.003
   0.14084507  0.50000000  0.14084507       0.003
   0.13380282  0.50000000  0.13380282       0.003
   0.12676056  0.50000000  0.12676056       0.003
   0.11971831  0.50000000  0.11971831       0.003
   0.11267606  0.50000000  0.11267606       0.003
   0.10563380  0.50000000  0.10563380       0.003
   0.09859155  0.50000000  0.09859155       0.003
   0.09154930  0.50000000  0.09154930       0.003
   0.08450704  0.50000000  0.08450704       0.003
   0.07746479  0.50000000  0.07746479       0.003
   0.07042254  0.50000000  0.07042254       0.003
   0.06338028  0.50000000  0.06338028       0.003
   0.05633803  0.50000000  0.05633803       0.003
   0.04929577  0.50000000  0.04929577       0.003
   0.04225352  0.50000000  0.04225352       0.003
   0.03521127  0.50000000  0.03521127       0.003
   0.02816901  0.50000000  0.02816901       0.003
   0.02112676  0.50000000  0.02112676       0.003
   0.01408451  0.50000000  0.01408451       0.003
   0.00704225  0.50000000  0.00704225       0.003
   0.00000000  0.50000000  0.00000000       0.003
   0.00000000  0.50000000  0.00000000       0.003
   0.00000000  0.49295775  0.00000000       0.003
   0.00000000  0.48591549  0.00000000       0.003
   0.00000000  0.47887324  0.00000000       0.003
   0.00000000  0.47183099  0.00000000       0.003
   0.00000000  0.46478873  0.00000000       0.003
   0.00000000  0.45774648  0.00000000       0.003
   0.00000000  0.45070423  0.00000000       0.003
   0.00000000  0.44366197  0.00000000       0.003
   0.00000000  0.43661972  0.00000000       0.003
   0.00000000  0.42957746  0.00000000       0.003
   0.00000000  0.42253521  0.00000000       0.003
   0.00000000  0.41549296  0.00000000       0.003
   0.00000000  0.40845070  0.00000000       0.003
   0.00000000  0.40140845  0.00000000       0.003
   0.00000000  0.39436620  0.00000000       0.003
   0.00000000  0.38732394  0.00000000       0.003
   0.00000000  0.38028169  0.00000000       0.003
   0.00000000  0.37323944  0.00000000       0.003
   0.00000000  0.36619718  0.00000000       0.003
   0.00000000  0.35915493  0.00000000       0.003
   0.00000000  0.35211268  0.00000000       0.003
   0.00000000  0.34507042  0.00000000       0.003
   0.00000000  0.33802817  0.00000000       0.003
   0.00000000  0.33098592  0.00000000       0.003
   0.00000000  0.32394366  0.00000000       0.003
   0.00000000  0.31690141  0.00000000       0.003
   0.00000000  0.30985915  0.00000000       0.003
   0.00000000  0.30281690  0.00000000       0.003
   0.00000000  0.29577465  0.00000000       0.003
   0.00000000  0.28873239  0.00000000       0.003
   0.00000000  0.28169014  0.00000000       0.003
   0.00000000  0.27464789  0.00000000       0.003
   0.00000000  0.26760563  0.00000000       0.003
   0.00000000  0.26056338  0.00000000       0.003
   0.00000000  0.25352113  0.00000000       0.003
   0.00000000  0.24647887  0.00000000       0.003
   0.00000000  0.23943662  0.00000000       0.003
   0.00000000  0.23239437  0.00000000       0.003
   0.00000000  0.22535211  0.00000000       0.003
   0.00000000  0.21830986  0.00000000       0.003
   0.00000000  0.21126761  0.00000000       0.003
   0.00000000  0.20422535  0.00000000       0.003
   0.00000000  0.19718310  0.00000000       0.003
   0.00000000  0.19014085  0.00000000       0.003
   0.00000000  0.18309859  0.00000000       0.003
   0.00000000  0.17605634  0.00000000       0.003
   0.00000000  0.16901408  0.00000000       0.003
   0.00000000  0.16197183  0.00000000       0.003
   0.00000000  0.15492958  0.00000000       0.003
   0.00000000  0.14788732  0.00000000       0.003
   0.00000000  0.14084507  0.00000000       0.003
   0.00000000  0.13380282  0.00000000       0.003
   0.00000000  0.12676056  0.00000000       0.003
   0.00000000  0.11971831  0.00000000       0.003
   0.00000000  0.11267606  0.00000000       0.003
   0.00000000  0.10563380  0.00000000       0.003
   0.00000000  0.09859155  0.00000000       0.003
   0.00000000  0.09154930  0.00000000       0.003
   0.00000000  0.08450704  0.00000000       0.003
   0.00000000  0.07746479  0.00000000       0.003
   0.00000000  0.07042254  0.00000000       0.003
   0.00000000  0.06338028  0.00000000       0.003
   0.00000000  0.05633803  0.00000000       0.003
   0.00000000  0.04929577  0.00000000       0.003
   0.00000000  0.04225352  0.00000000       0.003
   0.00000000  0.03521127  0.00000000       0.003
   0.00000000  0.02816901  0.00000000       0.003
   0.00000000  0.02112676  0.00000000       0.003
   0.00000000  0.01408451  0.00000000       0.003
   0.00000000  0.00704225  0.00000000       0.003
   0.00000000  0.00000000  0.00000000       0.003
   0.00000000  0.00000000  0.00000000       0.003
   0.00704225  0.00704225  0.00704225       0.003
   0.01408451  0.01408451  0.01408451       0.003
   0.02112676  0.02112676  0.02112676       0.003
   0.02816901  0.02816901  0.02816901       0.003
   0.03521127  0.03521127  0.03521127       0.003
   0.04225352  0.04225352  0.04225352       0.003
   0.04929577  0.04929577  0.04929577       0.003
   0.05633803  0.05633803  0.05633803       0.003
   0.06338028  0.06338028  0.06338028       0.003
   0.07042254  0.07042254  0.07042254       0.003
   0.07746479  0.07746479  0.07746479       0.003
   0.08450704  0.08450704  0.08450704       0.003
   0.09154930  0.09154930  0.09154930       0.003
   0.09859155  0.09859155  0.09859155       0.003
   0.10563380  0.10563380  0.10563380       0.003
   0.11267606  0.11267606  0.11267606       0.003
   0.11971831  0.11971831  0.11971831       0.003
   0.12676056  0.12676056  0.12676056       0.003
   0.13380282  0.13380282  0.13380282       0.003
   0.14084507  0.14084507  0.14084507       0.003
   0.14788732  0.14788732  0.14788732       0.003
   0.15492958  0.15492958  0.15492958       0.003
   0.16197183  0.16197183  0.16197183       0.003
   0.16901408  0.16901408  0.16901408       0.003
   0.17605634  0.17605634  0.17605634       0.003
   0.18309859  0.18309859  0.18309859       0.003
   0.19014085  0.19014085  0.19014085       0.003
   0.19718310  0.19718310  0.19718310       0.003
   0.20422535  0.20422535  0.20422535       0.003
   0.21126761  0.21126761  0.21126761       0.003
   0.21830986  0.21830986  0.21830986       0.003
   0.22535211  0.22535211  0.22535211       0.003
   0.23239437  0.23239437  0.23239437       0.003
   0.23943662  0.23943662  0.23943662       0.003
   0.24647887  0.24647887  0.24647887       0.003
   0.25352113  0.25352113  0.25352113       0.003
   0.26056338  0.26056338  0.26056338       0.003
   0.26760563  0.26760563  0.26760563       0.003
   0.27464789  0.27464789  0.27464789       0.003
   0.28169014  0.28169014  0.28169014       0.003
   0.28873239  0.28873239  0.28873239       0.003
   0.29577465  0.29577465  0.29577465       0.003
   0.30281690  0.30281690  0.30281690       0.003
   0.30985915  0.30985915  0.30985915       0.003
   0.31690141  0.31690141  0.31690141       0.003
   0.32394366  0.32394366  0.32394366       0.003
   0.33098592  0.33098592  0.33098592       0.003
   0.33802817  0.33802817  0.33802817       0.003
   0.34507042  0.34507042  0.34507042       0.003
   0.35211268  0.35211268  0.35211268       0.003
   0.35915493  0.35915493  0.35915493       0.003
   0.36619718  0.36619718  0.36619718       0.003
   0.37323944  0.37323944  0.37323944       0.003
   0.38028169  0.38028169  0.38028169       0.003
   0.38732394  0.38732394  0.38732394       0.003
   0.39436620  0.39436620  0.39436620       0.003
   0.40140845  0.40140845  0.40140845       0.003
   0.40845070  0.40845070  0.40845070       0.003
   0.41549296  0.41549296  0.41549296       0.003
   0.42253521  0.42253521  0.42253521       0.003
   0.42957746  0.42957746  0.42957746       0.003
   0.43661972  0.43661972  0.43661972       0.003
   0.44366197  0.44366197  0.44366197       0.003
   0.45070423  0.45070423  0.45070423       0.003
   0.45774648  0.45774648  0.45774648       0.003
   0.46478873  0.46478873  0.46478873       0.003
   0.47183099  0.47183099  0.47183099       0.003
   0.47887324  0.47887324  0.47887324       0.003
   0.48591549  0.48591549  0.48591549       0.003
   0.49295775  0.49295775  0.49295775       0.003
   0.50000000  0.50000000  0.50000000       0.003
 
 position of ions in fractional coordinates (direct lattice) 
   0.00000000  0.00000000  0.00000000
   0.00000000  0.50000000  0.50000000
   0.50000000  0.00000000  0.50000000
   0.50000000  0.50000000  0.00000000
 
 position of ions in cartesian coordinates  (Angst):
   0.00000000  0.00000000  0.00000000
   0.00000000  2.02035469  2.02035469
   2.02035469  0.00000000  2.02035469
   2.02035469  2.02035469  0.00000000
 


--------------------------------------------------------------------------------------------------------


 k-point  1 :   0.5000 0.0000 0.0000  plane waves:    2168
 k-point  2 :   0.5000 0.0070 0.0070  plane waves:    2184
 k-point  3 :   0.5000 0.0141 0.0141  plane waves:    2192
 k-point  4 :   0.5000 0.0211 0.0211  plane waves:    2204
 k-point  5 :   0.5000 0.0282 0.0282  plane waves:    2204
 k-point  6 :   0.5000 0.0352 0.0352  plane waves:    2204
 k-point  7 :   0.5000 0.0423 0.0423  plane waves:    2204
 k-point  8 :   0.5000 0.0493 0.0493  plane waves:    2196
 k-point  9 :   0.5000 0.0563 0.0563  plane waves:    2188
 k-point 10 :   0.5000 0.0634 0.0634  plane waves:    2188
 k-point 11 :   0.5000 0.0704 0.0704  plane waves:    2188
 k-point 12 :   0.5000 0.0775 0.0775  plane waves:    2192
 k-point 13 :   0.5000 0.0845 0.0845  plane waves:    2192
 k-point 14 :   0.5000 0.0915 0.0915  plane waves:    2188
 k-point 15 :   0.5000 0.0986 0.0986  plane waves:    2200
 k-point 16 :   0.5000 0.1056 0.1056  plane waves:    2200
 k-point 17 :   0.5000 0.1127 0.1127  plane waves:    2194
 k-point 18 :   0.5000 0.1197 0.1197  plane waves:    2198
 k-point 19 :   0.5000 0.1268 0.1268  plane waves:    2198
 k-point 20 :   0.5000 0.1338 0.1338  plane waves:    2198
 k-point 21 :   0.5000 0.1408 0.1408  plane waves:    2198
 k-point 22 :   0.5000 0.1479 0.1479  plane waves:    2200
 k-point 23 :   0.5000 0.1549 0.1549  plane waves:    2212
 k-point 24 :   0.5000 0.1620 0.1620  plane waves:    2216
 k-point 25 :   0.5000 0.1690 0.1690  plane waves:    2216
 k-point 26 :   0.5000 0.1761 0.1761  plane waves:    2212
 k-point 27 :   0.5000 0.1831 0.1831  plane waves:    2206
 k-point 28 :   0.5000 0.1901 0.1901  plane waves:    2206
 k-point 29 :   0.5000 0.1972 0.1972  plane waves:    2206
 k-point 30 :   0.5000 0.2042 0.2042  plane waves:    2198
 k-point 31 :   0.5000 0.2113 0.2113  plane waves:    2194
 k-point 32 :   0.5000 0.2183 0.2183  plane waves:    2194
 k-point 33 :   0.5000 0.2254 0.2254  plane waves:    2202
 k-point 34 :   0.5000 0.2324 0.2324  plane waves:    2194
 k-point 35 :   0.5000 0.2394 0.2394  plane waves:    2190
 k-point 36 :   0.5000 0.2465 0.2465  plane waves:    2190
 k-point 37 :   0.5000 0.2535 0.2535  plane waves:    2190
 k-point 38 :   0.5000 0.2606 0.2606  plane waves:    2190
 k-point 39 :   0.5000 0.2676 0.2676  plane waves:    2196
 k-point 40 :   0.5000 0.2746 0.2746  plane waves:    2204
 k-point 41 :   0.5000 0.2817 0.2817  plane waves:    2204
 k-point 42 :   0.5000 0.2887 0.2887  plane waves:    2208
 k-point 43 :   0.5000 0.2958 0.2958  plane waves:    2204
 k-point 44 :   0.5000 0.3028 0.3028  plane waves:    2204
 k-point 45 :   0.5000 0.3099 0.3099  plane waves:    2210
 k-point 46 :   0.5000 0.3169 0.3169  plane waves:    2206
 k-point 47 :   0.5000 0.3239 0.3239  plane waves:    2206
 k-point 48 :   0.5000 0.3310 0.3310  plane waves:    2206
 k-point 49 :   0.5000 0.3380 0.3380  plane waves:    2214
 k-point 50 :   0.5000 0.3451 0.3451  plane waves:    2214
 k-point 51 :   0.5000 0.3521 0.3521  plane waves:    2214
 k-point 52 :   0.5000 0.3592 0.3592  plane waves:    2222
 k-point 53 :   0.5000 0.3662 0.3662  plane waves:    2222
 k-point 54 :   0.5000 0.3732 0.3732  plane waves:    2226
 k-point 55 :   0.5000 0.3803 0.3803  plane waves:    2226
 k-point 56 :   0.5000 0.3873 0.3873  plane waves:    2232
 k-point 57 :   0.5000 0.3944 0.3944  plane waves:    2238
 k-point 58 :   0.5000 0.4014 0.4014  plane waves:    2234
 k-point 59 :   0.5000 0.4085 0.4085  plane waves:    2234
 k-point 60 :   0.5000 0.4155 0.4155  plane waves:    2238
 k-point 61 :   0.5000 0.4225 0.4225  plane waves:    2234
 k-point 62 :   0.5000 0.4296 0.4296  plane waves:    2232
 k-point 63 :   0.5000 0.4366 0.4366  plane waves:    2232
 k-point 64 :   0.5000 0.4437 0.4437  plane waves:    2236
 k-point 65 :   0.5000 0.4507 0.4507  plane waves:    2236
 k-point 66 :   0.5000 0.4577 0.4577  plane waves:    2240
 k-point 67 :   0.5000 0.4648 0.4648  plane waves:    2248
 k-point 68 :   0.5000 0.4718 0.4718  plane waves:    2256
 k-point 69 :   0.5000 0.4789 0.4789  plane waves:    2260
 k-point 70 :   0.5000 0.4859 0.4859  plane waves:    2272
 k-point 71 :   0.5000 0.4930 0.4930  plane waves:    2272
 k-point 72 :   0.5000 0.5000 0.5000  plane waves:    2272
 k-point 73 :   0.5000 0.5000 0.5000  plane waves:    2272
 k-point 74 :   0.4930 0.5000 0.4930  plane waves:    2272
 k-point 75 :   0.4859 0.5000 0.4859  plane waves:    2272
 k-point 76 :   0.4789 0.5000 0.4789  plane waves:    2260
 k-point 77 :   0.4718 0.5000 0.4718  plane waves:    2256
 k-point 78 :   0.4648 0.5000 0.4648  plane waves:    2248
 k-point 79 :   0.4577 0.5000 0.4577  plane waves:    2240
 k-point 80 :   0.4507 0.5000 0.4507  plane waves:    2236
 k-point 81 :   0.4437 0.5000 0.4437  plane waves:    2236
 k-point 82 :   0.4366 0.5000 0.4366  plane waves:    2232
 k-point 83 :   0.4296 0.5000 0.4296  plane waves:    2232
 k-point 84 :   0.4225 0.5000 0.4225  plane waves:    2234
 k-point 85 :   0.4155 0.5000 0.4155  plane waves:    2238
 k-point 86 :   0.4085 0.5000 0.4085  plane waves:    2234
 k-point 87 :   0.4014 0.5000 0.4014  plane waves:    2234
 k-point 88 :   0.3944 0.5000 0.3944  plane waves:    2238
 k-point 89 :   0.3873 0.5000 0.3873  plane waves:    2232
 k-point 90 :   0.3803 0.5000 0.3803  plane waves:    2226
 k-point 91 :   0.3732 0.5000 0.3732  plane waves:    2226
 k-point 92 :   0.3662 0.5000 0.3662  plane waves:    2222
 k-point 93 :   0.3592 0.5000 0.3592  plane waves:    2222
 k-point 94 :   0.3521 0.5000 0.3521  plane waves:    2214
 k-point 95 :   0.3451 0.5000 0.3451  plane waves:    2214
 k-point 96 :   0.3380 0.5000 0.3380  plane waves:    2214
 k-point 97 :   0.3310 0.5000 0.3310  plane waves:    2206
 k-point 98 :   0.3239 0.5000 0.3239  plane waves:    2206
 k-point 99 :   0.3169 0.5000 0.3169  plane waves:    2206
 k-point ** :   0.3099 0.5000 0.3099  plane waves:    2210
 k-point ** :   0.3028 0.5000 0.3028  plane waves:    2204
 k-point ** :   0.2958 0.5000 0.2958  plane waves:    2204
 k-point ** :   0.2887 0.5000 0.2887  plane waves:    2208
 k-point ** :   0.2817 0.5000 0.2817  plane waves:    2204
 k-point ** :   0.2746 0.5000 0.2746  plane waves:    2204
 k-point ** :   0.2676 0.5000 0.2676  plane waves:    2196
 k-point ** :   0.2606 0.5000 0.2606  plane waves:    2190
 k-point ** :   0.2535 0.5000 0.2535  plane waves:    2190
 k-point ** :   0.2465 0.5000 0.2465  plane waves:    2190
 k-point ** :   0.2394 0.5000 0.2394  plane waves:    2190
 k-point ** :   0.2324 0.5000 0.2324  plane waves:    2194
 k-point ** :   0.2254 0.5000 0.2254  plane waves:    2202
 k-point ** :   0.2183 0.5000 0.2183  plane waves:    2194
 k-point ** :   0.2113 0.5000 0.2113  plane waves:    2194
 k-point ** :   0.2042 0.5000 0.2042  plane waves:    2198
 k-point ** :   0.1972 0.5000 0.1972  plane waves:    2206
 k-point ** :   0.1901 0.5000 0.1901  plane waves:    2206
 k-point ** :   0.1831 0.5000 0.1831  plane waves:    2206
 k-point ** :   0.1761 0.5000 0.1761  plane waves:    2212
 k-point ** :   0.1690 0.5000 0.1690  plane waves:    2216
 k-point ** :   0.1620 0.5000 0.1620  plane waves:    2216
 k-point ** :   0.1549 0.5000 0.1549  plane waves:    2212
 k-point ** :   0.1479 0.5000 0.1479  plane waves:    2200
 k-point ** :   0.1408 0.5000 0.1408  plane waves:    2198
 k-point ** :   0.1338 0.5000 0.1338  plane waves:    2198
 k-point ** :   0.1268 0.5000 0.1268  plane waves:    2198
 k-point ** :   0.1197 0.5000 0.1197  plane waves:    2198
 k-point ** :   0.1127 0.5000 0.1127  plane waves:    2194
 k-point ** :   0.1056 0.5000 0.1056  plane waves:    2200
 k-point ** :   0.0986 0.5000 0.0986  plane waves:    2200
 k-point ** :   0.0915 0.5000 0.0915  plane waves:    2188
 k-point ** :   0.0845 0.5000 0.0845  plane waves:    2192
 k-point ** :   0.0775 0.5000 0.0775  plane waves:    2192
 k-point ** :   0.0704 0.5000 0.0704  plane waves:    2188
 k-point ** :   0.0634 0.5000 0.0634  plane waves:    2188
 k-point ** :   0.0563 0.5000 0.0563  plane waves:    2188
 k-point ** :   0.0493 0.5000 0.0493  plane waves:    2196
 k-point ** :   0.0423 0.5000 0.0423  plane waves:    2204
 k-point ** :   0.0352 0.5000 0.0352  plane waves:    2204
 k-point ** :   0.0282 0.5000 0.0282  plane waves:    2204
 k-point ** :   0.0211 0.5000 0.0211  plane waves:    2204
 k-point ** :   0.0141 0.5000 0.0141  plane waves:    2192
 k-point ** :   0.0070 0.5000 0.0070  plane waves:    2184
 k-point ** :   0.0000 0.5000 0.0000  plane waves:    2168
 k-point ** :   0.0000 0.5000 0.0000  plane waves:    2168
 k-point ** :   0.0000 0.4930 0.0000  plane waves:    2168
 k-point ** :   0.0000 0.4859 0.0000  plane waves:    2180
 k-point ** :   0.0000 0.4789 0.0000  plane waves:    2188
 k-point ** :   0.0000 0.4718 0.0000  plane waves:    2188
 k-point ** :   0.0000 0.4648 0.0000  plane waves:    2188
 k-point ** :   0.0000 0.4577 0.0000  plane waves:    2188
 k-point ** :   0.0000 0.4507 0.0000  plane waves:    2188
 k-point ** :   0.0000 0.4437 0.0000  plane waves:    2188
 k-point ** :   0.0000 0.4366 0.0000  plane waves:    2184
 k-point ** :   0.0000 0.4296 0.0000  plane waves:    2184
 k-point ** :   0.0000 0.4225 0.0000  plane waves:    2192
 k-point ** :   0.0000 0.4155 0.0000  plane waves:    2184
 k-point ** :   0.0000 0.4085 0.0000  plane waves:    2184
 k-point ** :   0.0000 0.4014 0.0000  plane waves:    2184
 k-point ** :   0.0000 0.3944 0.0000  plane waves:    2188
 k-point ** :   0.0000 0.3873 0.0000  plane waves:    2188
 k-point ** :   0.0000 0.3803 0.0000  plane waves:    2188
 k-point ** :   0.0000 0.3732 0.0000  plane waves:    2180
 k-point ** :   0.0000 0.3662 0.0000  plane waves:    2180
 k-point ** :   0.0000 0.3592 0.0000  plane waves:    2196
 k-point ** :   0.0000 0.3521 0.0000  plane waves:    2196
 k-point ** :   0.0000 0.3451 0.0000  plane waves:    2196
 k-point ** :   0.0000 0.3380 0.0000  plane waves:    2196
 k-point ** :   0.0000 0.3310 0.0000  plane waves:    2208
 k-point ** :   0.0000 0.3239 0.0000  plane waves:    2200
 k-point ** :   0.0000 0.3169 0.0000  plane waves:    2200
 k-point ** :   0.0000 0.3099 0.0000  plane waves:    2200
 k-point ** :   0.0000 0.3028 0.0000  plane waves:    2208
 k-point ** :   0.0000 0.2958 0.0000  plane waves:    2208
 k-point ** :   0.0000 0.2887 0.0000  plane waves:    2208
 k-point ** :   0.0000 0.2817 0.0000  plane waves:    2200
 k-point ** :   0.0000 0.2746 0.0000  plane waves:    2200
 k-point ** :   0.0000 0.2676 0.0000  plane waves:    2200
 k-point ** :   0.0000 0.2606 0.0000  plane waves:    2200
 k-point ** :   0.0000 0.2535 0.0000  plane waves:    2208
 k-point ** :   0.0000 0.2465 0.0000  plane waves:    2208
 k-point ** :   0.0000 0.2394 0.0000  plane waves:    2196
 k-point ** :   0.0000 0.2324 0.0000  plane waves:    2196
 k-point ** :   0.0000 0.2254 0.0000  plane waves:    2196
 k-point ** :   0.0000 0.2183 0.0000  plane waves:    2204
 k-point ** :   0.0000 0.2113 0.0000  plane waves:    2204
 k-point ** :   0.0000 0.2042 0.0000  plane waves:    2204
 k-point ** :   0.0000 0.1972 0.0000  plane waves:    2204
 k-point ** :   0.0000 0.1901 0.0000  plane waves:    2204
 k-point ** :   0.0000 0.1831 0.0000  plane waves:    2204
 k-point ** :   0.0000 0.1761 0.0000  plane waves:    2200
 k-point ** :   0.0000 0.1690 0.0000  plane waves:    2200
 k-point ** :   0.0000 0.1620 0.0000  plane waves:    2200
 k-point ** :   0.0000 0.1549 0.0000  plane waves:    2200
 k-point ** :   0.0000 0.1479 0.0000  plane waves:    2200
 k-point ** :   0.0000 0.1408 0.0000  plane waves:    2200
 k-point ** :   0.0000 0.1338 0.0000  plane waves:    2196
 k-point ** :   0.0000 0.1268 0.0000  plane waves:    2196
 k-point ** :   0.0000 0.1197 0.0000  plane waves:    2196
 k-point ** :   0.0000 0.1127 0.0000  plane waves:    2196
 k-point ** :   0.0000 0.1056 0.0000  plane waves:    2184
 k-point ** :   0.0000 0.0986 0.0000  plane waves:    2184
 k-point ** :   0.0000 0.0915 0.0000  plane waves:    2184
 k-point ** :   0.0000 0.0845 0.0000  plane waves:    2176
 k-point ** :   0.0000 0.0775 0.0000  plane waves:    2176
 k-point ** :   0.0000 0.0704 0.0000  plane waves:    2176
 k-point ** :   0.0000 0.0634 0.0000  plane waves:    2177
 k-point ** :   0.0000 0.0563 0.0000  plane waves:    2173
 k-point ** :   0.0000 0.0493 0.0000  plane waves:    2169
 k-point ** :   0.0000 0.0423 0.0000  plane waves:    2169
 k-point ** :   0.0000 0.0352 0.0000  plane waves:    2169
 k-point ** :   0.0000 0.0282 0.0000  plane waves:    2177
 k-point ** :   0.0000 0.0211 0.0000  plane waves:    2177
 k-point ** :   0.0000 0.0141 0.0000  plane waves:    2181
 k-point ** :   0.0000 0.0070 0.0000  plane waves:    2205
 k-point ** :   0.0000 0.0000 0.0000  plane waves:    2205
 k-point ** :   0.0000 0.0000 0.0000  plane waves:    2205
 k-point ** :   0.0070 0.0070 0.0070  plane waves:    2193
 k-point ** :   0.0141 0.0141 0.0141  plane waves:    2175
 k-point ** :   0.0211 0.0211 0.0211  plane waves:    2175
 k-point ** :   0.0282 0.0282 0.0282  plane waves:    2163
 k-point ** :   0.0352 0.0352 0.0352  plane waves:    2166
 k-point ** :   0.0423 0.0423 0.0423  plane waves:    2172
 k-point ** :   0.0493 0.0493 0.0493  plane waves:    2181
 k-point ** :   0.0563 0.0563 0.0563  plane waves:    2187
 k-point ** :   0.0634 0.0634 0.0634  plane waves:    2181
 k-point ** :   0.0704 0.0704 0.0704  plane waves:    2178
 k-point ** :   0.0775 0.0775 0.0775  plane waves:    2187
 k-point ** :   0.0845 0.0845 0.0845  plane waves:    2187
 k-point ** :   0.0915 0.0915 0.0915  plane waves:    2187
 k-point ** :   0.0986 0.0986 0.0986  plane waves:    2187
 k-point ** :   0.1056 0.1056 0.1056  plane waves:    2190
 k-point ** :   0.1127 0.1127 0.1127  plane waves:    2190
 k-point ** :   0.1197 0.1197 0.1197  plane waves:    2202
 k-point ** :   0.1268 0.1268 0.1268  plane waves:    2202
 k-point ** :   0.1338 0.1338 0.1338  plane waves:    2190
 k-point ** :   0.1408 0.1408 0.1408  plane waves:    2196
 k-point ** :   0.1479 0.1479 0.1479  plane waves:    2202
 k-point ** :   0.1549 0.1549 0.1549  plane waves:    2202
 k-point ** :   0.1620 0.1620 0.1620  plane waves:    2196
 k-point ** :   0.1690 0.1690 0.1690  plane waves:    2196
 k-point ** :   0.1761 0.1761 0.1761  plane waves:    2196
 k-point ** :   0.1831 0.1831 0.1831  plane waves:    2208
 k-point ** :   0.1901 0.1901 0.1901  plane waves:    2196
 k-point ** :   0.1972 0.1972 0.1972  plane waves:    2196
 k-point ** :   0.2042 0.2042 0.2042  plane waves:    2196
 k-point ** :   0.2113 0.2113 0.2113  plane waves:    2196
 k-point ** :   0.2183 0.2183 0.2183  plane waves:    2196
 k-point ** :   0.2254 0.2254 0.2254  plane waves:    2208
 k-point ** :   0.2324 0.2324 0.2324  plane waves:    2205
 k-point ** :   0.2394 0.2394 0.2394  plane waves:    2205
 k-point ** :   0.2465 0.2465 0.2465  plane waves:    2199
 k-point ** :   0.2535 0.2535 0.2535  plane waves:    2199
 k-point ** :   0.2606 0.2606 0.2606  plane waves:    2211
 k-point ** :   0.2676 0.2676 0.2676  plane waves:    2211
 k-point ** :   0.2746 0.2746 0.2746  plane waves:    2211
 k-point ** :   0.2817 0.2817 0.2817  plane waves:    2205
 k-point ** :   0.2887 0.2887 0.2887  plane waves:    2205
 k-point ** :   0.2958 0.2958 0.2958  plane waves:    2211
 k-point ** :   0.3028 0.3028 0.3028  plane waves:    2214
 k-point ** :   0.3099 0.3099 0.3099  plane waves:    2214
 k-point ** :   0.3169 0.3169 0.3169  plane waves:    2217
 k-point ** :   0.3239 0.3239 0.3239  plane waves:    2211
 k-point ** :   0.3310 0.3310 0.3310  plane waves:    2223
 k-point ** :   0.3380 0.3380 0.3380  plane waves:    2223
 k-point ** :   0.3451 0.3451 0.3451  plane waves:    2218
 k-point ** :   0.3521 0.3521 0.3521  plane waves:    2218
 k-point ** :   0.3592 0.3592 0.3592  plane waves:    2215
 k-point ** :   0.3662 0.3662 0.3662  plane waves:    2209
 k-point ** :   0.3732 0.3732 0.3732  plane waves:    2203
 k-point ** :   0.3803 0.3803 0.3803  plane waves:    2212
 k-point ** :   0.3873 0.3873 0.3873  plane waves:    2212
 k-point ** :   0.3944 0.3944 0.3944  plane waves:    2224
 k-point ** :   0.4014 0.4014 0.4014  plane waves:    2230
 k-point ** :   0.4085 0.4085 0.4085  plane waves:    2230
 k-point ** :   0.4155 0.4155 0.4155  plane waves:    2236
 k-point ** :   0.4225 0.4225 0.4225  plane waves:    2236
 k-point ** :   0.4296 0.4296 0.4296  plane waves:    2236
 k-point ** :   0.4366 0.4366 0.4366  plane waves:    2236
 k-point ** :   0.4437 0.4437 0.4437  plane waves:    2230
 k-point ** :   0.4507 0.4507 0.4507  plane waves:    2242
 k-point ** :   0.4577 0.4577 0.4577  plane waves:    2242
 k-point ** :   0.4648 0.4648 0.4648  plane waves:    2242
 k-point ** :   0.4718 0.4718 0.4718  plane waves:    2248
 k-point ** :   0.4789 0.4789 0.4789  plane waves:    2254
 k-point ** :   0.4859 0.4859 0.4859  plane waves:    2272
 k-point ** :   0.4930 0.4930 0.4930  plane waves:    2272
 k-point ** :   0.5000 0.5000 0.5000  plane waves:    2272

 maximum and minimum number of plane-waves per node :       219      172

 maximum number of plane-waves:      2272
 maximum index in each direction: 
   IXMAX=    8   IYMAX=    8   IZMAX=    8
   IXMIN=   -8   IYMIN=   -8   IZMIN=   -8

 WARNING: aliasing errors must be expected set NGX to  34 to avoid them
 WARNING: aliasing errors must be expected set NGY to  34 to avoid them
 WARNING: aliasing errors must be expected set NGZ to  34 to avoid them
 aliasing errors are usually negligible using standard VASP settings
 and one can safely disregard these warnings

 parallel 3D FFT for wavefunctions:
    minimum data exchange during FFTs selected (reduces bandwidth)
 parallel 3D FFT for charge:
    minimum data exchange during FFTs selected (reduces bandwidth)


 total amount of memory used by VASP on root node    47303. kBytes
========================================================================

   base      :      30000. kBytes
   nonl-proj :       3921. kBytes
   fftplans  :        359. kBytes
   grid      :        852. kBytes
   one-center:          6. kBytes
   wavefun   :      12165. kBytes
 
     INWAV:  cpu time    1.8727: real time    1.8857
 Broyden mixing: mesh for mixing (old mesh)
   NGX = 17   NGY = 17   NGZ = 17
  (NGX  = 64   NGY  = 64   NGZ  = 64)
  gives a total of   4913 points

 initial charge density was supplied:
 number of electron      12.0000000 magnetization      -0.0000003
 keeping initial charge density in first step


--------------------------------------------------------------------------------------------------------


 Maximum index for augmentation-charges          853 (set IRDMAX)


--------------------------------------------------------------------------------------------------------


 First call to EWALD:  gamma=   0.439
 Maximum number of real-space cells 3x 3x 3
 Maximum number of reciprocal cells 3x 3x 3

 FEWALD executed in parallel
    FEWALD:  cpu time    0.0020: real time    0.0015


----------------------------------------- Iteration    1(   1)  ---------------------------------------


    POTLOK:  cpu time    0.0120: real time    0.0113
    SETDIJ:  cpu time    0.0040: real time    0.0043
     EDDAV:  cpu time    5.5802: real time    5.6092
       DOS:  cpu time    0.0030: real time    0.0033
    CHARGE:  cpu time    0.0840: real time    0.0839
    MIXING:  cpu time    0.0020: real time    0.0016
    --------------------------------------------
      LOOP:  cpu time    5.6861: real time    5.7154

 eigenvalue-minimisations  : 42008
 total energy-change (2. order) :-0.1577570E+02  (-0.7834209E+01)
 number of electron      12.0000000 magnetization       0.0001229
 augmentation part       -0.1496055 magnetization       0.0000231

 Broyden mixing:
  rms(total) = 0.38060E-01    rms(broyden)= 0.38060E-01
  rms(prec ) = 0.40708E-01
  weight for this iteration     100.00

 Free energy of the ion-electron system (eV)
  ---------------------------------------------------
  alpha Z        PSCENC =        -0.81457851
  Ewald energy   TEWEN  =      -294.10150216
  -Hartree energ DENC   =        -0.41829180
  -exchange      EXHF   =         0.00000000
  -V(xc)+E(xc)   XCENC  =      -104.51682179
  PAW double counting   =       561.68207824     -433.91360535
  entropy T*S    EENTRO =        -0.07109670
  eigenvalues    EBANDS =        42.22391732
  atomic energy  EATOM  =       214.15419884
  Solvation  Ediel_sol  =         0.00000000
  ---------------------------------------------------
  free energy    TOTEN  =       -15.77570192 eV

  energy without entropy =      -15.70460521  energy(sigma->0) =      -15.74015356


--------------------------------------------------------------------------------------------------------




----------------------------------------- Iteration    1(   2)  ---------------------------------------


    POTLOK:  cpu time    0.0100: real time    0.0095
    SETDIJ:  cpu time    0.0040: real time    0.0039
     EDDAV:  cpu time    4.6103: real time    4.6397
       DOS:  cpu time    0.0030: real time    0.0034
    CHARGE:  cpu time    0.0840: real time    0.0857
    MIXING:  cpu time    0.0020: real time    0.0008
    --------------------------------------------
      LOOP:  cpu time    4.7133: real time    4.7437

 eigenvalue-minimisations  : 33200
 total energy-change (2. order) :-0.3263340E+00  (-0.3082771E+00)
 number of electron      12.0000000 magnetization       0.0000821
 augmentation part       -0.1591515 magnetization       0.0000186

 Broyden mixing:
  rms(total) = 0.25751E-01    rms(broyden)= 0.25751E-01
  rms(prec ) = 0.28094E-01
  weight for this iteration     100.00

 eigenvalues of (default mixing * dielectric matrix)
  average eigenvalue GAMMA=   0.6007
  0.6007

 Free energy of the ion-electron system (eV)
  ---------------------------------------------------
  alpha Z        PSCENC =        -0.81457851
  Ewald energy   TEWEN  =      -294.10150216
  -Hartree energ DENC   =        -0.42300020
  -exchange      EXHF   =         0.00000000
  -V(xc)+E(xc)   XCENC  =      -104.51134206
  PAW double counting   =       596.98698137     -469.21668188
  entropy T*S    EENTRO =        -0.07093422
  eigenvalues    EBANDS =        41.89482288
  atomic energy  EATOM  =       214.15419884
  Solvation  Ediel_sol  =         0.00000000
  ---------------------------------------------------
  free energy    TOTEN  =       -16.10203594 eV

  energy without entropy =      -16.03110172  energy(sigma->0) =      -16.06656883


--------------------------------------------------------------------------------------------------------




----------------------------------------- Iteration    1(   3)  ---------------------------------------


    POTLOK:  cpu time    0.0090: real time    0.0096
    SETDIJ:  cpu time    0.0040: real time    0.0039
     EDDAV:  cpu time    4.5943: real time    4.6163
       DOS:  cpu time    0.0030: real time    0.0034
    CHARGE:  cpu time    0.0850: real time    0.0849
    MIXING:  cpu time    0.0010: real time    0.0004
    --------------------------------------------
      LOOP:  cpu time    4.6963: real time    4.7191

 eigenvalue-minimisations  : 33264
 total energy-change (2. order) :-0.1979702E-02  (-0.1999373E-02)
 number of electron      12.0000000 magnetization       0.0000501
 augmentation part       -0.1594107 magnetization       0.0000206

 Broyden mixing:
  rms(total) = 0.15543E-01    rms(broyden)= 0.15543E-01
  rms(prec ) = 0.18447E-01
  weight for this iteration     100.00

 eigenvalues of (default mixing * dielectric matrix)
  average eigenvalue GAMMA=   0.7668
  0.7668  0.7668

 Free energy of the ion-electron system (eV)
  ---------------------------------------------------
  alpha Z        PSCENC =        -0.81457851
  Ewald energy   TEWEN  =      -294.10150216
  -Hartree energ DENC   =        -0.42124998
  -exchange      EXHF   =         0.00000000
  -V(xc)+E(xc)   XCENC  =      -104.51358593
  PAW double counting   =       587.16295777     -459.39507360
  entropy T*S    EENTRO =        -0.07095461
  eigenvalues    EBANDS =        41.89577254
  atomic energy  EATOM  =       214.15419884
  Solvation  Ediel_sol  =         0.00000000
  ---------------------------------------------------
  free energy    TOTEN  =       -16.10401564 eV

  energy without entropy =      -16.03306103  energy(sigma->0) =      -16.06853834


--------------------------------------------------------------------------------------------------------




----------------------------------------- Iteration    1(   4)  ---------------------------------------


    POTLOK:  cpu time    0.0090: real time    0.0096
    SETDIJ:  cpu time    0.0040: real time    0.0039
     EDDAV:  cpu time    4.5333: real time    4.5559
       DOS:  cpu time    0.0030: real time    0.0033
    CHARGE:  cpu time    0.0850: real time    0.0851
    MIXING:  cpu time    0.0010: real time    0.0004
    --------------------------------------------
      LOOP:  cpu time    4.6353: real time    4.6587

 eigenvalue-minimisations  : 32448
 total energy-change (2. order) : 0.2833437E-05  (-0.1406948E-04)
 number of electron      12.0000000 magnetization       0.0000058
 augmentation part       -0.1594410 magnetization      -0.0000166

 Broyden mixing:
  rms(total) = 0.12477E-01    rms(broyden)= 0.12477E-01
  rms(prec ) = 0.14785E-01
  weight for this iteration     100.00

 eigenvalues of (default mixing * dielectric matrix)
  average eigenvalue GAMMA=   1.2285
  1.4535  1.4535  0.7786

 Free energy of the ion-electron system (eV)
  ---------------------------------------------------
  alpha Z        PSCENC =        -0.81457851
  Ewald energy   TEWEN  =      -294.10150216
  -Hartree energ DENC   =        -0.42015969
  -exchange      EXHF   =         0.00000000
  -V(xc)+E(xc)   XCENC  =      -104.51544491
  PAW double counting   =       581.29902599     -453.53291384
  entropy T*S    EENTRO =        -0.07095497
  eigenvalues    EBANDS =        41.89831643
  atomic energy  EATOM  =       214.15419884
  Solvation  Ediel_sol  =         0.00000000
  ---------------------------------------------------
  free energy    TOTEN  =       -16.10401281 eV

  energy without entropy =      -16.03305784  energy(sigma->0) =      -16.06853532


--------------------------------------------------------------------------------------------------------




----------------------------------------- Iteration    1(   5)  ---------------------------------------


    POTLOK:  cpu time    0.0090: real time    0.0096
    SETDIJ:  cpu time    0.0040: real time    0.0039
     EDDAV:  cpu time    4.5903: real time    4.6162
       DOS:  cpu time    0.0030: real time    0.0035
    CHARGE:  cpu time    0.0850: real time    0.0852
    MIXING:  cpu time    0.0010: real time    0.0004
    --------------------------------------------
      LOOP:  cpu time    4.6923: real time    4.7194

 eigenvalue-minimisations  : 32344
 total energy-change (2. order) : 0.1678189E-04  (-0.3080681E-05)
 number of electron      12.0000000 magnetization      -0.0000093
 augmentation part       -0.1593157 magnetization      -0.0000051

 Broyden mixing:
  rms(total) = 0.20710E-02    rms(broyden)= 0.20710E-02
  rms(prec ) = 0.21222E-02
  weight for this iteration     100.00

 eigenvalues of (default mixing * dielectric matrix)
  average eigenvalue GAMMA=   1.2550
  2.5986  0.9369  0.7423  0.7423

 Free energy of the ion-electron system (eV)
  ---------------------------------------------------
  alpha Z        PSCENC =        -0.81457851
  Ewald energy   TEWEN  =      -294.10150216
  -Hartree energ DENC   =        -0.41593055
  -exchange      EXHF   =         0.00000000
  -V(xc)+E(xc)   XCENC  =      -104.52264058
  PAW double counting   =       559.33481916     -431.57509611
  entropy T*S    EENTRO =        -0.07095622
  eigenvalues    EBANDS =        41.90769009
  atomic energy  EATOM  =       214.15419884
  Solvation  Ediel_sol  =         0.00000000
  ---------------------------------------------------
  free energy    TOTEN  =       -16.10399602 eV

  energy without entropy =      -16.03303981  energy(sigma->0) =      -16.06851792


[...]
     12      17.6297      0.00000
     13      17.6297      0.00000
     14      17.6297      0.00000
     15      18.9472      0.00000
     16      18.9472      0.00000
     17      19.2890      0.00000
     18      19.2890      0.00000
     19      19.2890      0.00000
     20      20.2663      0.00000
     21      20.2663      0.00000
     22      21.5917      0.00000
     23      21.5917      0.00000
     24      21.5917      0.00000

 k-point   277 :       0.4225    0.4225    0.4225
  band No.  band energies     occupation 
      1       1.6436      1.00000
      2       2.9910      1.00000
      3       2.9910      1.00000
      4       2.9910      1.00000
      5       4.3520      1.00000
      6       4.3520      1.00000
      7       4.3520      1.00000
      8       5.6783      1.00000
      9      17.2055      0.00000
     10      17.2055      0.00000
     11      17.2055      0.00000
     12      17.7679      0.00000
     13      17.7679      0.00000
     14      17.7679      0.00000
     15      18.9760      0.00000
     16      18.9760      0.00000
     17      19.3871      0.00000
     18      19.3871      0.00000
     19      19.3871      0.00000
     20      20.1855      0.00000
     21      20.1855      0.00000
     22      21.4002      0.00000
     23      21.4002      0.00000
     24      21.4002      0.00000

 k-point   278 :       0.4296    0.4296    0.4296
  band No.  band energies     occupation 
      1       1.8013      1.00000
      2       3.0245      1.00000
      3       3.0245      1.00000
      4       3.0245      1.00000
      5       4.2652      1.00000
      6       4.2652      1.00000
      7       4.2652      1.00000
      8       5.4709      1.00000
      9      17.4411      0.00000
     10      17.4411      0.00000
     11      17.4411      0.00000
     12      17.9086      0.00000
     13      17.9086      0.00000
     14      17.9086      0.00000
     15      19.0071      0.00000
     16      19.0071      0.00000
     17      19.4783      0.00000
     18      19.4783      0.00000
     19      19.4783      0.00000
     20      20.1069      0.00000
     21      20.1069      0.00000
     22      21.2110      0.00000
     23      21.2110      0.00000
     24      21.2110      0.00000

 k-point   279 :       0.4366    0.4366    0.4366
  band No.  band energies     occupation 
      1       1.9613      1.00000
      2       3.0603      1.00000
      3       3.0603      1.00000
      4       3.0603      1.00000
      5       4.1811      1.00000
      6       4.1811      1.00000
      7       4.1811      1.00000
      8       5.2658      1.00000
      9      17.6745      0.00000
     10      17.6745      0.00000
     11      17.6745      0.00000
     12      18.0515      0.00000
     13      18.0515      0.00000
     14      18.0515      0.00000
     15      19.0404      0.00000
     16      19.0404      0.00000
     17      19.5605      0.00000
     18      19.5605      0.00000
     19      19.5605      0.00000
     20      20.0305      0.00000
     21      20.0305      0.00000
     22      21.0240      0.00000
     23      21.0240      0.00000
     24      21.0240      0.00000

 k-point   280 :       0.4437    0.4437    0.4437
  band No.  band energies     occupation 
      1       2.1238      1.00000
      2       3.0984      1.00000
      3       3.0984      1.00000
      4       3.0984      1.00000
      5       4.0997      1.00000
      6       4.0997      1.00000
      7       4.0997      1.00000
      8       5.0631      1.00000
      9      17.9050      0.00000
     10      17.9050      0.00000
     11      17.9050      0.00000
     12      18.1968      0.00000
     13      18.1968      0.00000
     14      18.1968      0.00000
     15      19.0761      0.00000
     16      19.0761      0.00000
     17      19.6313      0.00000
     18      19.6313      0.00000
     19      19.6313      0.00000
     20      19.9565      0.00000
     21      19.9565      0.00000
     22      20.8392      0.00000
     23      20.8392      0.00000
     24      20.8392      0.00000

 k-point   281 :       0.4507    0.4507    0.4507
  band No.  band energies     occupation 
      1       2.2885      1.00000
      2       3.1388      1.00000
      3       3.1388      1.00000
      4       3.1388      1.00000
      5       4.0212      1.00000
      6       4.0212      1.00000
      7       4.0212      1.00000
      8       4.8628      1.00000
      9      18.1313      0.00000
     10      18.1313      0.00000
     11      18.1313      0.00000
     12      18.3444      0.00000
     13      18.3444      0.00000
     14      18.3444      0.00000
     15      19.1139      0.00000
     16      19.1139      0.00000
     17      19.6880      0.00000
     18      19.6880      0.00000
     19      19.6880      0.00000
     20      19.8846      0.00000
     21      19.8846      0.00000
     22      20.6568      0.00000
     23      20.6568      0.00000
     24      20.6568      0.00000

 k-point   282 :       0.4577    0.4577    0.4577
  band No.  band energies     occupation 
      1       2.4555      1.00000
      2       3.1812      1.00000
      3       3.1812      1.00000
      4       3.1812      1.00000
      5       3.9457      1.00000
      6       3.9457      1.00000
      7       3.9457      1.00000
      8       4.6651      1.00000
      9      18.3522      0.00000
     10      18.3522      0.00000
     11      18.3522      0.00000
     12      18.4944      0.00000
     13      18.4944      0.00000
     14      18.4944      0.00000
     15      19.1540      0.00000
     16      19.1540      0.00000
     17      19.7274      0.00000
     18      19.7274      0.00000
     19      19.7274      0.00000
     20      19.8151      0.00000
     21      19.8151      0.00000
     22      20.4767      0.00000
     23      20.4767      0.00000
     24      20.4767      0.00000

 k-point   283 :       0.4648    0.4648    0.4648
  band No.  band energies     occupation 
      1       2.6246      1.00000
      2       3.2254      1.00000
      3       3.2254      1.00000
      4       3.2254      1.00000
      5       3.8735      1.00000
      6       3.8735      1.00000
      7       3.8735      1.00000
      8       4.4699      1.00000
      9      18.5660      0.00000
     10      18.5660      0.00000
     11      18.5660      0.00000
     12      18.6467      0.00000
     13      18.6467      0.00000
     14      18.6467      0.00000
     15      19.1963      0.00000
     16      19.1963      0.00000
     17      19.7460      0.00000
     18      19.7460      0.00000
     19      19.7460      0.00000
     20      19.7478      0.00000
     21      19.7478      0.00000
     22      20.2988      0.00000
     23      20.2988      0.00000
     24      20.2988      0.00000

 k-point   284 :       0.4718    0.4718    0.4718
  band No.  band energies     occupation 
      1       2.7956      1.00000
      2       3.2708      1.00000
      3       3.2708      1.00000
      4       3.2708      1.00000
      5       3.8052      1.00000
      6       3.8052      1.00000
      7       3.8052      1.00000
      8       4.2776      1.00000
      9      18.7706      0.00000
     10      18.7706      0.00000
     11      18.7706      0.00000
     12      18.8013      0.00000
     13      18.8013      0.00000
     14      18.8013      0.00000
     15      19.2408      0.00000
     16      19.2408      0.00000
     17      19.6829      0.00000
     18      19.6829      0.00000
     19      19.7406      0.00000
     20      19.7406      0.00000
     21      19.7406      0.00000
     22      20.1233      0.00000
     23      20.1233      0.00000
     24      20.1233      0.00000

 k-point   285 :       0.4789    0.4789    0.4789
  band No.  band energies     occupation 
      1       2.9680      1.00000
      2       3.3164      1.00000
      3       3.3164      1.00000
      4       3.3164      1.00000
      5       3.7417      1.00000
      6       3.7417      1.00000
      7       3.7417      1.00000
      8       4.0886      1.00000
      9      18.9582      0.00000
     10      18.9582      0.00000
     11      18.9582      0.00000
     12      18.9636      0.00000
     13      18.9636      0.00000
     14      18.9636      0.00000
     15      19.2875      0.00000
     16      19.2875      0.00000
     17      19.6204      0.00000
     18      19.6204      0.00000
     19      19.7087      0.00000
     20      19.7087      0.00000
     21      19.7087      0.00000
     22      19.9502      0.00000
     23      19.9502      0.00000
     24      19.9502      0.00000

 k-point   286 :       0.4859    0.4859    0.4859
  band No.  band energies     occupation 
      1       3.1403      1.00000
      2       3.3599      1.00000
      3       3.3599      1.00000
      4       3.3599      1.00000
      5       3.6856      1.00000
      6       3.6856      1.00000
      7       3.6856      1.00000
      8       3.9044      1.00000
      9      19.1172      0.00000
     10      19.1172      0.00000
     11      19.1172      0.00000
     12      19.1419      0.00000
     13      19.1419      0.00000
     14      19.1419      0.00000
     15      19.3360      0.00000
     16      19.3360      0.00000
     17      19.5606      0.00000
     18      19.5606      0.00000
     19      19.6488      0.00000
     20      19.6488      0.00000
     21      19.6488      0.00000
     22      19.7795      0.00000
     23      19.7795      0.00000
     24      19.7795      0.00000

 k-point   287 :       0.4930    0.4930    0.4930
  band No.  band energies     occupation 
      1       3.3063      1.00000
      2       3.3952      1.00000
      3       3.3952      1.00000
      4       3.3952      1.00000
      5       3.6426      1.00000
      6       3.6426      1.00000
      7       3.6426      1.00000
      8       3.7313      1.00000
      9      19.2781      0.00000
     10      19.2781      0.00000
     11      19.2781      0.00000
     12      19.3019      0.00000
     13      19.3019      0.00000
     14      19.3019      0.00000
     15      19.3853      0.00000
     16      19.3853      0.00000
     17      19.5045      0.00000
     18      19.5045      0.00000
     19      19.5613      0.00000
     20      19.5613      0.00000
     21      19.5613      0.00000
     22      19.6117      0.00000
     23      19.6117      0.00000
     24      19.6117      0.00000

 k-point   288 :       0.5000    0.5000    0.5000
  band No.  band energies     occupation 
      1       3.4101      1.00000
      2       3.4101      1.00000
      3       3.4101      1.00000
      4       3.4101      1.00000
      5       3.6251      1.00000
      6       3.6251      1.00000
      7       3.6251      1.00000
      8       3.6251      1.00000
      9      19.4207      0.00000
     10      19.4207      0.00000
     11      19.4207      0.00000
     12      19.4207      0.00000
     13      19.4207      0.00000
     14      19.4207      0.00000
     15      19.4207      0.00000
     16      19.4207      0.00000
     17      19.4668      0.00000
     18      19.4668      0.00000
     19      19.4668      0.00000
     20      19.4668      0.00000
     21      19.4668      0.00000
     22      19.4668      0.00000
     23      19.4668      0.00000
     24      19.4668      0.00000


--------------------------------------------------------------------------------------------------------


 soft charge-density along one line, spin component           1
         0         1         2         3         4         5         6         7         8         9
 total charge-density along one line
 
 soft charge-density along one line, spin component           2
         0         1         2         3         4         5         6         7         8         9
 total charge-density along one line
 
 pseudopotential strength for first ion, spin component:           1
  8.444  14.391  -0.000  -0.000   0.000  -0.000  -0.000  -0.000
 14.391  24.527  -0.000  -0.000   0.000  -0.000  -0.000   0.000
 -0.000  -0.000   1.988   0.000  -0.000   5.732   0.000  -0.000
 -0.000  -0.000   0.000   1.988   0.000   0.000   5.732   0.000
  0.000   0.000  -0.000   0.000   1.988  -0.000   0.000   5.732
 -0.000  -0.000   5.732   0.000  -0.000  16.439   0.000  -0.000
 -0.000  -0.000   0.000   5.732   0.000   0.000  16.439   0.000
 -0.000   0.000  -0.000   0.000   5.732  -0.000   0.000  16.439
 pseudopotential strength for first ion, spin component:           2
  8.444  14.391  -0.000  -0.000  -0.000  -0.000  -0.000  -0.000
 14.391  24.527  -0.000  -0.000  -0.000  -0.000  -0.000   0.000
 -0.000  -0.000   1.988   0.000  -0.000   5.732   0.000  -0.000
 -0.000  -0.000   0.000   1.988   0.000   0.000   5.732   0.000
 -0.000  -0.000  -0.000   0.000   1.988  -0.000   0.000   5.732
 -0.000  -0.000   5.732   0.000  -0.000  16.439   0.000  -0.000
 -0.000  -0.000   0.000   5.732   0.000   0.000  16.439   0.000
 -0.000   0.000  -0.000   0.000   5.732  -0.000   0.000  16.439
 total augmentation occupancy for first ion, spin component:           1
  3.293  -0.779   0.000  -0.000   0.000  -0.000   0.000   0.000
 -0.779   0.250   0.000   0.000  -0.000   0.000  -0.000  -0.000
  0.000   0.000   1.104  -0.000   0.000  -0.073  -0.000   0.000
 -0.000   0.000   0.000   1.104   0.000   0.000  -0.073   0.000
  0.000  -0.000   0.000  -0.000   1.104   0.000  -0.000  -0.073
 -0.000   0.000  -0.073  -0.000  -0.000   0.005   0.000   0.000
  0.000  -0.000  -0.000  -0.073  -0.000   0.000   0.005  -0.000
  0.000  -0.000  -0.000   0.000  -0.073   0.000   0.000   0.005
 total augmentation occupancy for first ion, spin component:           2
 -0.000   0.000   0.000  -0.000   0.000   0.000   0.000  -0.000
  0.000  -0.000  -0.000   0.000  -0.000  -0.000   0.000   0.000
  0.000  -0.000   0.000  -0.000  -0.000  -0.000   0.000  -0.000
 -0.000   0.000  -0.000   0.000  -0.000   0.000  -0.000   0.000
  0.000  -0.000  -0.000  -0.000   0.000   0.000  -0.000  -0.000
  0.000  -0.000  -0.000   0.000   0.000  -0.000  -0.000   0.000
  0.000   0.000   0.000  -0.000  -0.000  -0.000  -0.000   0.000
 -0.000   0.000  -0.000   0.000  -0.000   0.000   0.000  -0.000


------------------------ aborting loop because EDIFF is reached ----------------------------------------


    CHARGE:  cpu time    0.0820: real time    0.0829
    FORLOC:  cpu time    0.0010: real time    0.0003
    FORNL :  cpu time    0.2470: real time    0.2482
    STRESS:  cpu time    0.5749: real time    0.5784
    FORCOR:  cpu time    0.0100: real time    0.0100
    FORHAR:  cpu time    0.0020: real time    0.0014
    MIXING:  cpu time    0.0000: real time    0.0007
    OFIELD:  cpu time    0.0000: real time    0.0001

  FORCE on cell =-STRESS in cart. coord.  units (eV):
  Direction    XX          YY          ZZ          XY          YZ          ZX
  --------------------------------------------------------------------------------------
  Alpha Z    -0.81458    -0.81458    -0.81458
  Ewald     -98.03388   -98.03388   -98.03388     0.00000     0.00000    -0.00000
  Hartree     0.13843     0.13843     0.13843    -0.00000    -0.00000    -0.00000
  E(xc)     -34.28313   -34.28313   -34.28313     0.00000    -0.00000    -0.00000
  Local       1.29630     1.29630     1.29630    -0.00000     0.00000    -0.00000
  n-local    76.38928    75.96416    77.01970     0.08040     0.30792     0.30792
  augment    -4.24898    -4.24898    -4.24898     0.00000    -0.00000    -0.00000
  Kinetic    60.65969    56.13937    60.81921    -1.04745    -3.24866    -3.24866
  Fock        0.00000     0.00000     0.00000     0.00000     0.00000     0.00000
  -------------------------------------------------------------------------------------
  Total      -0.28202    -0.28202    -0.28202     0.00000     0.00000    -0.00000
  in kB      -6.84890    -6.84890    -6.84890     0.00000     0.00000    -0.00000
  external pressure =       -6.85 kB  Pullay stress =        0.00 kB


 VOLUME and BASIS-vectors are now :
 -----------------------------------------------------------------------------
  energy-cutoff  :      600.00
  volume of cell :       65.97
      direct lattice vectors                 reciprocal lattice vectors
     4.040709377  0.000000000  0.000000000     0.247481298  0.000000000  0.000000000
     0.000000000  4.040709377  0.000000000     0.000000000  0.247481298  0.000000000
     0.000000000  0.000000000  4.040709377     0.000000000  0.000000000  0.247481298

  length of vectors
     4.040709377  4.040709377  4.040709377     0.247481298  0.247481298  0.247481298


 FORCES acting on ions
    electron-ion (+dipol)            ewald-force                    non-local-force                 convergence-correction
 -----------------------------------------------------------------------------------------------
   -.548E-15 -.278E-15 0.118E-15   0.807E-15 -.637E-15 -.841E-15   0.631E-27 0.404E-27 0.268E-26   0.548E-17 0.122E-16 -.317E-17
   -.682E-15 -.398E-14 -.274E-14   0.829E-15 0.129E-14 0.350E-15   -.404E-27 0.000E+00 -.202E-26   0.649E-17 -.222E-16 -.159E-17
   -.141E-14 -.160E-14 -.308E-13   -.944E-15 -.122E-14 0.359E-15   0.101E-27 0.121E-26 -.121E-26   0.604E-17 0.324E-16 0.992E-18
   -.111E-14 0.661E-15 0.674E-14   -.922E-15 0.707E-15 0.210E-15   0.121E-26 -.121E-26 -.242E-26   0.502E-17 -.290E-16 -.240E-17
 -----------------------------------------------------------------------------------------------
   -.375E-14 -.520E-14 -.267E-13   -.230E-15 0.140E-15 0.783E-16   0.154E-26 0.404E-27 -.298E-26   0.230E-16 -.666E-17 -.617E-17
 
 
 POSITION                                       TOTAL-FORCE (eV/Angst)
 -----------------------------------------------------------------------------------
      0.00000      0.00000      0.00000         0.000000     -0.000000      0.000000
      0.00000      2.02035      2.02035         0.000000      0.000000      0.000000
      2.02035      0.00000      2.02035         0.000000      0.000000      0.000000
      2.02035      2.02035      0.00000         0.000000      0.000000     -0.000000
 -----------------------------------------------------------------------------------
    total drift:                               -0.000000     -0.000000     -0.000000


--------------------------------------------------------------------------------------------------------



  FREE ENERGIE OF THE ION-ELECTRON SYSTEM (eV)
  ---------------------------------------------------
  free  energy   TOTEN  =       -16.10399530 eV

  energy  without entropy=      -16.03303857  energy(sigma->0) =      -16.06851693
 


--------------------------------------------------------------------------------------------------------


    POTLOK:  cpu time    0.0150: real time    0.0140


--------------------------------------------------------------------------------------------------------


 writing wavefunctions
     LOOP+:  cpu time   54.4577: real time   54.7486
    4ORBIT:  cpu time    0.0000: real time    0.0000

 total amount of memory used by VASP on root node    47303. kBytes
========================================================================

   base      :      30000. kBytes
   nonl-proj :       3921. kBytes
   fftplans  :        359. kBytes
   grid      :        852. kBytes
   one-center:          6. kBytes
   wavefun   :      12165. kBytes
 
  
  
 General timing and accounting informations for this job:
 ========================================================
  
                  Total CPU time used (sec):       57.719
                            User time (sec):       55.224
                          System time (sec):        2.496
                         Elapsed time (sec):       58.057
  
                   Maximum memory used (kb):       91980.
                   Average memory used (kb):           0.
  
                          Minor page faults:        15020
                          Major page faults:            0
                 Voluntary context switches:           85
