 vasp.5.4.1 05Feb16 (build Sep 29 2017 10:38:24) complex                        
  
 executed on           IFC91_ompi date 2021.04.01  18:43:40
 running on   44 total cores
 distrk:  each k-point on   44 cores,    1 groups
 distr:  one band on NCORES_PER_BAND=  11 cores,    4 groups


--------------------------------------------------------------------------------------------------------


 INCAR:
 POTCAR:    PAW_PBE Al 04Jan2001                  
 POTCAR:    PAW_PBE Al 04Jan2001                  
   VRHFIN =Al: s2p1                                                             
   LEXCH  = PE                                                                  
   EATOM  =    53.5387 eV,    3.9350 Ry                                         
                                                                                
   TITEL  = PAW_PBE Al 04Jan2001                                                
   LULTRA =        F    use ultrasoft PP ?                                      
   IUNSCR =        1    unscreen: 0-lin 1-nonlin 2-no                           
   RPACOR =    1.500    partial core radius                                     
   POMASS =   26.981; ZVAL   =    3.000    mass and valenz                      
   RCORE  =    1.900    outmost cutoff radius                                   
   RWIGS  =    2.650; RWIGS  =    1.402    wigner-seitz radius (au A)           
   ENMAX  =  240.300; ENMIN  =  180.225 eV                                      
   ICORE  =        2    local potential                                         
   LCOR   =        T    correct aug charges                                     
   LPAW   =        T    paw PP                                                  
   EAUG   =  291.052                                                            
   DEXC   =    0.000                                                            
   RMAX   =    1.939    core radius for proj-oper                               
   RAUG   =    1.300    factor for augmentation sphere                          
   RDEP   =    1.966    radius for radial grids                                 
   RDEPT  =    1.856    core radius for aug-charge                              
                                                                                
   Atomic configuration                                                         
    6 entries                                                                   
     n  l   j            E        occ.                                          
     1  0  0.50     -1511.1048   2.0000                                         
     2  0  0.50      -108.1629   2.0000                                         
     2  1  1.50       -69.6402   6.0000                                         
     3  0  0.50        -7.7528   2.0000                                         
     3  1  1.50        -2.7121   1.0000                                         
     3  2  2.50        -2.7212   0.0000                                         
   Description                                                                  
     l       E           TYP  RCUT    TYP  RCUT                                 
     0     -7.7528455     23  1.900                                             
     0     -3.3096929     23  1.900                                             
     1     -2.7120682     23  1.900                                             
     1     13.6058260     23  1.900                                             
     2     -2.7211652      7  1.900                                             
  local pseudopotential read in
  partial core-charges read in
  partial kinetic energy density read in
  atomic valenz-charges read in
  non local Contribution for L=           0  read in
    real space projection operators read in
  non local Contribution for L=           0  read in
    real space projection operators read in
  non local Contribution for L=           1  read in
    real space projection operators read in
  non local Contribution for L=           1  read in
    real space projection operators read in
    PAW grid and wavefunctions read in
 
   number of l-projection  operators is LMAX  =           4
   number of lm-projection operators is LMMAX =           8
 
  PAW_PBE Al 04Jan2001                  :
 energy of atom  1       EATOM=  -53.5387
 kinetic energy error for atom=    0.0002 (will be added to EATOM!!)
 
 
 POSCAR: Al                                      
  positions in direct lattice
  velocities in cartesian coordinates
 exchange correlation table for  LEXCH =        8
   RHO(1)=    0.500       N(1)  =     2000
   RHO(2)=  100.500       N(2)  =     4000
 


--------------------------------------------------------------------------------------------------------


 ion  position               nearest neighbor table
   1  0.000  0.000  0.000-   2 2.86   3 2.86   4 2.86   2 2.86   3 2.86   2 2.86   4 2.86   2 2.86
                             3 2.86   4 2.86   3 2.86   4 2.86
   2  0.000  0.500  0.500-   1 2.86   3 2.86   4 2.86   1 2.86   4 2.86   1 2.86   3 2.86   1 2.86
                             3 2.86   4 2.86   4 2.86   3 2.86
   3  0.500  0.000  0.500-   1 2.86   2 2.86   4 2.86   1 2.86   4 2.86   2 2.86   4 2.86   4 2.86
                             1 2.86   2 2.86   1 2.86   2 2.86
   4  0.500  0.500  0.000-   1 2.86   2 2.86   3 2.86   2 2.86   3 2.86   1 2.86   3 2.86   3 2.86
                             1 2.86   2 2.86   2 2.86   1 2.86
 
  LATTYP: Found a simple cubic cell.
 ALAT       =     4.0407093772
  
  Lattice vectors:
  
 A1 = (   4.0407093772,   0.0000000000,   0.0000000000)
 A2 = (   0.0000000000,   4.0407093772,   0.0000000000)
 A3 = (   0.0000000000,   0.0000000000,   4.0407093772)


Analysis of symmetry for initial positions (statically):
=====================================================================
 Subroutine PRICEL returns following result:
 
  LATTYP: Found a face centered cubic cell.
 ALAT       =     4.0407093772
  
  Lattice vectors:
  
 A1 = (   2.0203546886,   2.0203546886,   0.0000000000)
 A2 = (   2.0203546886,   0.0000000000,  -2.0203546886)
 A3 = (   0.0000000000,   2.0203546886,  -2.0203546886)
 
   4 primitive cells build up your supercell.
 

 Routine SETGRP: Setting up the symmetry group for a 
 simple cubic supercell.


 Subroutine GETGRP returns: Found 48 space group operations
 (whereof 48 operations were pure point group operations)
 out of a pool of 48 trial point group operations.


The static configuration has the point symmetry O_h .


Analysis of symmetry for dynamics (positions and initial velocities):
=====================================================================
 Subroutine PRICEL returns following result:
 
  LATTYP: Found a face centered cubic cell.
 ALAT       =     4.0407093772
  
  Lattice vectors:
  
 A1 = (   2.0203546886,   2.0203546886,   0.0000000000)
 A2 = (   2.0203546886,   0.0000000000,  -2.0203546886)
 A3 = (   0.0000000000,   2.0203546886,  -2.0203546886)
 
   4 primitive cells build up your supercell.
 

 Routine SETGRP: Setting up the symmetry group for a 
 simple cubic supercell.


 Subroutine GETGRP returns: Found 48 space group operations
 (whereof 48 operations were pure point group operations)
 out of a pool of 48 trial point group operations.


The dynamic configuration has the point symmetry O_h .


Analysis of structural, dynamic, and magnetic symmetry:
=====================================================================
 Subroutine PRICEL returns following result:
 
  LATTYP: Found a face centered cubic cell.
 ALAT       =     4.0407093772
  
  Lattice vectors:
  
 A1 = (   2.0203546886,   2.0203546886,   0.0000000000)
 A2 = (   2.0203546886,   0.0000000000,  -2.0203546886)
 A3 = (   0.0000000000,   2.0203546886,  -2.0203546886)
 
   4 primitive cells build up your supercell.
 

 Routine SETGRP: Setting up the symmetry group for a 
 simple cubic supercell.


 Subroutine GETGRP returns: Found 48 space group operations
 (whereof 48 operations were pure point group operations)
 out of a pool of 48 trial point group operations.


The magnetic configuration has the point symmetry O_h .


 Subroutine INISYM returns: Found 48 space group operations
 (whereof 48 operations are pure point group operations),
 and found     4 'primitive' translations

 
 
 KPOINTS: K-points                                

Automatic generation of k-mesh.
Space group operators:
 irot       det(A)        alpha          n_x          n_y          n_z        tau_x        tau_y        tau_z
    1     1.000000     0.000001     1.000000     0.000000     0.000000     0.000000     0.000000     0.000000
    2    -1.000000     0.000001     1.000000     0.000000     0.000000     0.000000     0.000000     0.000000
    3     1.000000   120.000000    -0.577350    -0.577350    -0.577350     0.000000     0.000000     0.000000
    4    -1.000000   120.000000    -0.577350    -0.577350    -0.577350     0.000000     0.000000     0.000000
    5     1.000000   120.000000     0.577350     0.577350     0.577350     0.000000     0.000000     0.000000
    6    -1.000000   120.000000     0.577350     0.577350     0.577350     0.000000     0.000000     0.000000
    7     1.000000    90.000000     0.000000     0.000000    -1.000000     0.000000     0.000000     0.000000
    8    -1.000000    90.000000     0.000000     0.000000    -1.000000     0.000000     0.000000     0.000000
    9     1.000000   180.000000     0.000000     0.707107     0.707107     0.000000     0.000000     0.000000
   10    -1.000000   180.000000     0.000000     0.707107     0.707107     0.000000     0.000000     0.000000
   11     1.000000    90.000000     0.000000     1.000000     0.000000     0.000000     0.000000     0.000000
   12    -1.000000    90.000000     0.000000     1.000000     0.000000     0.000000     0.000000     0.000000
   13     1.000000   180.000000     0.000000     0.000000     1.000000     0.000000     0.000000     0.000000
   14    -1.000000   180.000000     0.000000     0.000000     1.000000     0.000000     0.000000     0.000000
   15     1.000000   120.000000    -0.577350     0.577350     0.577350     0.000000     0.000000     0.000000
   16    -1.000000   120.000000    -0.577350     0.577350     0.577350     0.000000     0.000000     0.000000
   17     1.000000   120.000000    -0.577350     0.577350    -0.577350     0.000000     0.000000     0.000000
   18    -1.000000   120.000000    -0.577350     0.577350    -0.577350     0.000000     0.000000     0.000000
   19     1.000000    90.000000     0.000000     0.000000     1.000000     0.000000     0.000000     0.000000
   20    -1.000000    90.000000     0.000000     0.000000     1.000000     0.000000     0.000000     0.000000
   21     1.000000    90.000000    -1.000000     0.000000     0.000000     0.000000     0.000000     0.000000
   22    -1.000000    90.000000    -1.000000     0.000000     0.000000     0.000000     0.000000     0.000000
   23     1.000000   180.000000     0.707107     0.000000     0.707107     0.000000     0.000000     0.000000
   24    -1.000000   180.000000     0.707107     0.000000     0.707107     0.000000     0.000000     0.000000
   25     1.000000   120.000000     0.577350    -0.577350     0.577350     0.000000     0.000000     0.000000
   26    -1.000000   120.000000     0.577350    -0.577350     0.577350     0.000000     0.000000     0.000000
   27     1.000000   120.000000    -0.577350    -0.577350     0.577350     0.000000     0.000000     0.000000
   28    -1.000000   120.000000    -0.577350    -0.577350     0.577350     0.000000     0.000000     0.000000
   29     1.000000   180.000000     1.000000     0.000000     0.000000     0.000000     0.000000     0.000000
   30    -1.000000   180.000000     1.000000     0.000000     0.000000     0.000000     0.000000     0.000000
   31     1.000000    90.000000     0.000000    -1.000000     0.000000     0.000000     0.000000     0.000000
   32    -1.000000    90.000000     0.000000    -1.000000     0.000000     0.000000     0.000000     0.000000
   33     1.000000   180.000000     0.707107     0.707107     0.000000     0.000000     0.000000     0.000000
   34    -1.000000   180.000000     0.707107     0.707107     0.000000     0.000000     0.000000     0.000000
   35     1.000000    90.000000     1.000000     0.000000     0.000000     0.000000     0.000000     0.000000
   36    -1.000000    90.000000     1.000000     0.000000     0.000000     0.000000     0.000000     0.000000
   37     1.000000   120.000000     0.577350    -0.577350    -0.577350     0.000000     0.000000     0.000000
   38    -1.000000   120.000000     0.577350    -0.577350    -0.577350     0.000000     0.000000     0.000000
   39     1.000000   180.000000     0.000000     1.000000     0.000000     0.000000     0.000000     0.000000
   40    -1.000000   180.000000     0.000000     1.000000     0.000000     0.000000     0.000000     0.000000
   41     1.000000   120.000000     0.577350     0.577350    -0.577350     0.000000     0.000000     0.000000
   42    -1.000000   120.000000     0.577350     0.577350    -0.577350     0.000000     0.000000     0.000000
   43     1.000000   180.000000     0.000000    -0.707107     0.707107     0.000000     0.000000     0.000000
   44    -1.000000   180.000000     0.000000    -0.707107     0.707107     0.000000     0.000000     0.000000
   45     1.000000   180.000000     0.707107    -0.707107     0.000000     0.000000     0.000000     0.000000
   46    -1.000000   180.000000     0.707107    -0.707107     0.000000     0.000000     0.000000     0.000000
   47     1.000000   180.000000     0.707107     0.000000    -0.707107     0.000000     0.000000     0.000000
   48    -1.000000   180.000000     0.707107     0.000000    -0.707107     0.000000     0.000000     0.000000
 
 Subroutine IBZKPT returns following result:
 ===========================================
 
 Found    286 irreducible k-points:
 
 Following reciprocal coordinates:
            Coordinates               Weight
  0.000000  0.000000  0.000000      1.000000
  0.050000  0.000000  0.000000      6.000000
  0.100000  0.000000  0.000000      6.000000
  0.150000  0.000000  0.000000      6.000000
  0.200000  0.000000  0.000000      6.000000
  0.250000  0.000000  0.000000      6.000000
  0.300000  0.000000  0.000000      6.000000
  0.350000  0.000000  0.000000      6.000000
  0.400000  0.000000  0.000000      6.000000
  0.450000  0.000000  0.000000      6.000000
  0.500000  0.000000  0.000000      3.000000
  0.050000  0.050000  0.000000     12.000000
  0.100000  0.050000  0.000000     24.000000
  0.150000  0.050000  0.000000     24.000000
  0.200000  0.050000  0.000000     24.000000
  0.250000  0.050000  0.000000     24.000000
  0.300000  0.050000  0.000000     24.000000
  0.350000  0.050000  0.000000     24.000000
  0.400000  0.050000  0.000000     24.000000
  0.450000  0.050000  0.000000     24.000000
  0.500000  0.050000  0.000000     12.000000
  0.100000  0.100000  0.000000     12.000000
  0.150000  0.100000  0.000000     24.000000
  0.200000  0.100000  0.000000     24.000000
  0.250000  0.100000  0.000000     24.000000
  0.300000  0.100000  0.000000     24.000000
  0.350000  0.100000  0.000000     24.000000
  0.400000  0.100000  0.000000     24.000000
  0.450000  0.100000  0.000000     24.000000
  0.500000  0.100000  0.000000     12.000000
  0.150000  0.150000  0.000000     12.000000
  0.200000  0.150000  0.000000     24.000000
  0.250000  0.150000  0.000000     24.000000
  0.300000  0.150000  0.000000     24.000000
  0.350000  0.150000  0.000000     24.000000
  0.400000  0.150000  0.000000     24.000000
  0.450000  0.150000  0.000000     24.000000
  0.500000  0.150000  0.000000     12.000000
  0.200000  0.200000  0.000000     12.000000
  0.250000  0.200000  0.000000     24.000000
  0.300000  0.200000  0.000000     24.000000
  0.350000  0.200000  0.000000     24.000000
  0.400000  0.200000  0.000000     24.000000
  0.450000  0.200000  0.000000     24.000000
  0.500000  0.200000  0.000000     12.000000
  0.250000  0.250000  0.000000     12.000000
  0.300000  0.250000  0.000000     24.000000
  0.350000  0.250000  0.000000     24.000000
  0.400000  0.250000  0.000000     24.000000
  0.450000  0.250000  0.000000     24.000000
  0.500000  0.250000  0.000000     12.000000
  0.300000  0.300000  0.000000     12.000000
  0.350000  0.300000  0.000000     24.000000
  0.400000  0.300000  0.000000     24.000000
  0.450000  0.300000  0.000000     24.000000
  0.500000  0.300000  0.000000     12.000000
  0.350000  0.350000  0.000000     12.000000
  0.400000  0.350000  0.000000     24.000000
  0.450000  0.350000  0.000000     24.000000
  0.500000  0.350000  0.000000     12.000000
  0.400000  0.400000  0.000000     12.000000
  0.450000  0.400000  0.000000     24.000000
  0.500000  0.400000  0.000000     12.000000
  0.450000  0.450000  0.000000     12.000000
  0.500000  0.450000  0.000000     12.000000
  0.500000  0.500000  0.000000      3.000000
  0.050000  0.050000  0.050000      8.000000
  0.100000  0.050000  0.050000     24.000000
  0.150000  0.050000  0.050000     24.000000
  0.200000  0.050000  0.050000     24.000000
  0.250000  0.050000  0.050000     24.000000
  0.300000  0.050000  0.050000     24.000000
  0.350000  0.050000  0.050000     24.000000
  0.400000  0.050000  0.050000     24.000000
  0.450000  0.050000  0.050000     24.000000
  0.500000  0.050000  0.050000     12.000000
  0.100000  0.100000  0.050000     24.000000
  0.150000  0.100000  0.050000     48.000000
  0.200000  0.100000  0.050000     48.000000
  0.250000  0.100000  0.050000     48.000000
  0.300000  0.100000  0.050000     48.000000
  0.350000  0.100000  0.050000     48.000000
  0.400000  0.100000  0.050000     48.000000
  0.450000  0.100000  0.050000     48.000000
  0.500000  0.100000  0.050000     24.000000
  0.150000  0.150000  0.050000     24.000000
  0.200000  0.150000  0.050000     48.000000
  0.250000  0.150000  0.050000     48.000000
  0.300000  0.150000  0.050000     48.000000
  0.350000  0.150000  0.050000     48.000000
  0.400000  0.150000  0.050000     48.000000
  0.450000  0.150000  0.050000     48.000000
  0.500000  0.150000  0.050000     24.000000
  0.200000  0.200000  0.050000     24.000000
  0.250000  0.200000  0.050000     48.000000
  0.300000  0.200000  0.050000     48.000000
  0.350000  0.200000  0.050000     48.000000
  0.400000  0.200000  0.050000     48.000000
  0.450000  0.200000  0.050000     48.000000
  0.500000  0.200000  0.050000     24.000000
  0.250000  0.250000  0.050000     24.000000
  0.300000  0.250000  0.050000     48.000000
  0.350000  0.250000  0.050000     48.000000
  0.400000  0.250000  0.050000     48.000000
  0.450000  0.250000  0.050000     48.000000
  0.500000  0.250000  0.050000     24.000000
  0.300000  0.300000  0.050000     24.000000
  0.350000  0.300000  0.050000     48.000000
  0.400000  0.300000  0.050000     48.000000
  0.450000  0.300000  0.050000     48.000000
  0.500000  0.300000  0.050000     24.000000
  0.350000  0.350000  0.050000     24.000000
  0.400000  0.350000  0.050000     48.000000
  0.450000  0.350000  0.050000     48.000000
  0.500000  0.350000  0.050000     24.000000
  0.400000  0.400000  0.050000     24.000000
  0.450000  0.400000  0.050000     48.000000
  0.500000  0.400000  0.050000     24.000000
  0.450000  0.450000  0.050000     24.000000
  0.500000  0.450000  0.050000     24.000000
  0.500000  0.500000  0.050000      6.000000
  0.100000  0.100000  0.100000      8.000000
  0.150000  0.100000  0.100000     24.000000
  0.200000  0.100000  0.100000     24.000000
  0.250000  0.100000  0.100000     24.000000
  0.300000  0.100000  0.100000     24.000000
  0.350000  0.100000  0.100000     24.000000
  0.400000  0.100000  0.100000     24.000000
  0.450000  0.100000  0.100000     24.000000
  0.500000  0.100000  0.100000     12.000000
  0.150000  0.150000  0.100000     24.000000
  0.200000  0.150000  0.100000     48.000000
  0.250000  0.150000  0.100000     48.000000
  0.300000  0.150000  0.100000     48.000000
  0.350000  0.150000  0.100000     48.000000
  0.400000  0.150000  0.100000     48.000000
  0.450000  0.150000  0.100000     48.000000
  0.500000  0.150000  0.100000     24.000000
  0.200000  0.200000  0.100000     24.000000
  0.250000  0.200000  0.100000     48.000000
  0.300000  0.200000  0.100000     48.000000
  0.350000  0.200000  0.100000     48.000000
  0.400000  0.200000  0.100000     48.000000
  0.450000  0.200000  0.100000     48.000000
  0.500000  0.200000  0.100000     24.000000
  0.250000  0.250000  0.100000     24.000000
  0.300000  0.250000  0.100000     48.000000
  0.350000  0.250000  0.100000     48.000000
  0.400000  0.250000  0.100000     48.000000
  0.450000  0.250000  0.100000     48.000000
  0.500000  0.250000  0.100000     24.000000
  0.300000  0.300000  0.100000     24.000000
  0.350000  0.300000  0.100000     48.000000
  0.400000  0.300000  0.100000     48.000000
  0.450000  0.300000  0.100000     48.000000
  0.500000  0.300000  0.100000     24.000000
  0.350000  0.350000  0.100000     24.000000
  0.400000  0.350000  0.100000     48.000000
  0.450000  0.350000  0.100000     48.000000
  0.500000  0.350000  0.100000     24.000000
  0.400000  0.400000  0.100000     24.000000
  0.450000  0.400000  0.100000     48.000000
  0.500000  0.400000  0.100000     24.000000
  0.450000  0.450000  0.100000     24.000000
  0.500000  0.450000  0.100000     24.000000
  0.500000  0.500000  0.100000      6.000000
  0.150000  0.150000  0.150000      8.000000
  0.200000  0.150000  0.150000     24.000000
  0.250000  0.150000  0.150000     24.000000
  0.300000  0.150000  0.150000     24.000000
  0.350000  0.150000  0.150000     24.000000
  0.400000  0.150000  0.150000     24.000000
  0.450000  0.150000  0.150000     24.000000
  0.500000  0.150000  0.150000     12.000000
  0.200000  0.200000  0.150000     24.000000
  0.250000  0.200000  0.150000     48.000000
  0.300000  0.200000  0.150000     48.000000
  0.350000  0.200000  0.150000     48.000000
  0.400000  0.200000  0.150000     48.000000
  0.450000  0.200000  0.150000     48.000000
  0.500000  0.200000  0.150000     24.000000
  0.250000  0.250000  0.150000     24.000000
  0.300000  0.250000  0.150000     48.000000
  0.350000  0.250000  0.150000     48.000000
  0.400000  0.250000  0.150000     48.000000
  0.450000  0.250000  0.150000     48.000000
  0.500000  0.250000  0.150000     24.000000
  0.300000  0.300000  0.150000     24.000000
  0.350000  0.300000  0.150000     48.000000
  0.400000  0.300000  0.150000     48.000000
  0.450000  0.300000  0.150000     48.000000
  0.500000  0.300000  0.150000     24.000000
  0.350000  0.350000  0.150000     24.000000
  0.400000  0.350000  0.150000     48.000000
  0.450000  0.350000  0.150000     48.000000
  0.500000  0.350000  0.150000     24.000000
  0.400000  0.400000  0.150000     24.000000
  0.450000  0.400000  0.150000     48.000000
  0.500000  0.400000  0.150000     24.000000
  0.450000  0.450000  0.150000     24.000000
  0.500000  0.450000  0.150000     24.000000
  0.500000  0.500000  0.150000      6.000000
  0.200000  0.200000  0.200000      8.000000
  0.250000  0.200000  0.200000     24.000000
  0.300000  0.200000  0.200000     24.000000
  0.350000  0.200000  0.200000     24.000000
  0.400000  0.200000  0.200000     24.000000
  0.450000  0.200000  0.200000     24.000000
  0.500000  0.200000  0.200000     12.000000
  0.250000  0.250000  0.200000     24.000000
  0.300000  0.250000  0.200000     48.000000
  0.350000  0.250000  0.200000     48.000000
  0.400000  0.250000  0.200000     48.000000
  0.450000  0.250000  0.200000     48.000000
  0.500000  0.250000  0.200000     24.000000
  0.300000  0.300000  0.200000     24.000000
  0.350000  0.300000  0.200000     48.000000
  0.400000  0.300000  0.200000     48.000000
  0.450000  0.300000  0.200000     48.000000
  0.500000  0.300000  0.200000     24.000000
  0.350000  0.350000  0.200000     24.000000
  0.400000  0.350000  0.200000     48.000000
  0.450000  0.350000  0.200000     48.000000
  0.500000  0.350000  0.200000     24.000000
  0.400000  0.400000  0.200000     24.000000
  0.450000  0.400000  0.200000     48.000000
  0.500000  0.400000  0.200000     24.000000
  0.450000  0.450000  0.200000     24.000000
  0.500000  0.450000  0.200000     24.000000
  0.500000  0.500000  0.200000      6.000000
  0.250000  0.250000  0.250000      8.000000
  0.300000  0.250000  0.250000     24.000000
  0.350000  0.250000  0.250000     24.000000
  0.400000  0.250000  0.250000     24.000000
  0.450000  0.250000  0.250000     24.000000
  0.500000  0.250000  0.250000     12.000000
  0.300000  0.300000  0.250000     24.000000
  0.350000  0.300000  0.250000     48.000000
  0.400000  0.300000  0.250000     48.000000
  0.450000  0.300000  0.250000     48.000000
  0.500000  0.300000  0.250000     24.000000
  0.350000  0.350000  0.250000     24.000000
  0.400000  0.350000  0.250000     48.000000
  0.450000  0.350000  0.250000     48.000000
  0.500000  0.350000  0.250000     24.000000
  0.400000  0.400000  0.250000     24.000000
  0.450000  0.400000  0.250000     48.000000
  0.500000  0.400000  0.250000     24.000000
  0.450000  0.450000  0.250000     24.000000
  0.500000  0.450000  0.250000     24.000000
  0.500000  0.500000  0.250000      6.000000
  0.300000  0.300000  0.300000      8.000000
  0.350000  0.300000  0.300000     24.000000
  0.400000  0.300000  0.300000     24.000000
  0.450000  0.300000  0.300000     24.000000
  0.500000  0.300000  0.300000     12.000000
  0.350000  0.350000  0.300000     24.000000
  0.400000  0.350000  0.300000     48.000000
  0.450000  0.350000  0.300000     48.000000
  0.500000  0.350000  0.300000     24.000000
  0.400000  0.400000  0.300000     24.000000
  0.450000  0.400000  0.300000     48.000000
  0.500000  0.400000  0.300000     24.000000
  0.450000  0.450000  0.300000     24.000000
  0.500000  0.450000  0.300000     24.000000
  0.500000  0.500000  0.300000      6.000000
  0.350000  0.350000  0.350000      8.000000
  0.400000  0.350000  0.350000     24.000000
  0.450000  0.350000  0.350000     24.000000
  0.500000  0.350000  0.350000     12.000000
  0.400000  0.400000  0.350000     24.000000
  0.450000  0.400000  0.350000     48.000000
  0.500000  0.400000  0.350000     24.000000
  0.450000  0.450000  0.350000     24.000000
  0.500000  0.450000  0.350000     24.000000
  0.500000  0.500000  0.350000      6.000000
  0.400000  0.400000  0.400000      8.000000
  0.450000  0.400000  0.400000     24.000000
  0.500000  0.400000  0.400000     12.000000
  0.450000  0.450000  0.400000     24.000000
  0.500000  0.450000  0.400000     24.000000
  0.500000  0.500000  0.400000      6.000000
  0.450000  0.450000  0.450000      8.000000
  0.500000  0.450000  0.450000     12.000000
  0.500000  0.500000  0.450000      6.000000
  0.500000  0.500000  0.500000      1.000000
 
 Following cartesian coordinates:
            Coordinates               Weight
  0.000000  0.000000  0.000000      1.000000
  0.012374  0.000000  0.000000      6.000000
  0.024748  0.000000  0.000000      6.000000
  0.037122  0.000000  0.000000      6.000000
  0.049496  0.000000  0.000000      6.000000
  0.061870  0.000000  0.000000      6.000000
  0.074244  0.000000  0.000000      6.000000
  0.086618  0.000000  0.000000      6.000000
  0.098993  0.000000  0.000000      6.000000
  0.111367  0.000000  0.000000      6.000000
  0.123741  0.000000  0.000000      3.000000
  0.012374  0.012374  0.000000     12.000000
  0.024748  0.012374  0.000000     24.000000
  0.037122  0.012374  0.000000     24.000000
  0.049496  0.012374  0.000000     24.000000
  0.061870  0.012374  0.000000     24.000000
  0.074244  0.012374  0.000000     24.000000
  0.086618  0.012374  0.000000     24.000000
  0.098993  0.012374  0.000000     24.000000
  0.111367  0.012374  0.000000     24.000000
  0.123741  0.012374  0.000000     12.000000
  0.024748  0.024748  0.000000     12.000000
  0.037122  0.024748  0.000000     24.000000
  0.049496  0.024748  0.000000     24.000000
  0.061870  0.024748  0.000000     24.000000
  0.074244  0.024748  0.000000     24.000000
  0.086618  0.024748  0.000000     24.000000
  0.098993  0.024748  0.000000     24.000000
  0.111367  0.024748  0.000000     24.000000
  0.123741  0.024748  0.000000     12.000000
  0.037122  0.037122  0.000000     12.000000
  0.049496  0.037122  0.000000     24.000000
  0.061870  0.037122  0.000000     24.000000
  0.074244  0.037122  0.000000     24.000000
  0.086618  0.037122  0.000000     24.000000
  0.098993  0.037122  0.000000     24.000000
  0.111367  0.037122  0.000000     24.000000
  0.123741  0.037122  0.000000     12.000000
  0.049496  0.049496  0.000000     12.000000
  0.061870  0.049496  0.000000     24.000000
  0.074244  0.049496  0.000000     24.000000
  0.086618  0.049496  0.000000     24.000000
  0.098993  0.049496  0.000000     24.000000
  0.111367  0.049496  0.000000     24.000000
  0.123741  0.049496  0.000000     12.000000
  0.061870  0.061870  0.000000     12.000000
  0.074244  0.061870  0.000000     24.000000
  0.086618  0.061870  0.000000     24.000000
  0.098993  0.061870  0.000000     24.000000
  0.111367  0.061870  0.000000     24.000000
  0.123741  0.061870  0.000000     12.000000
  0.074244  0.074244  0.000000     12.000000
  0.086618  0.074244  0.000000     24.000000
  0.098993  0.074244  0.000000     24.000000
  0.111367  0.074244  0.000000     24.000000
  0.123741  0.074244  0.000000     12.000000
  0.086618  0.086618  0.000000     12.000000
  0.098993  0.086618  0.000000     24.000000
  0.111367  0.086618  0.000000     24.000000
  0.123741  0.086618  0.000000     12.000000
  0.098993  0.098993  0.000000     12.000000
  0.111367  0.098993  0.000000     24.000000
  0.123741  0.098993  0.000000     12.000000
  0.111367  0.111367  0.000000     12.000000
  0.123741  0.111367  0.000000     12.000000
  0.123741  0.123741  0.000000      3.000000
  0.012374  0.012374  0.012374      8.000000
  0.024748  0.012374  0.012374     24.000000
  0.037122  0.012374  0.012374     24.000000
  0.049496  0.012374  0.012374     24.000000
  0.061870  0.012374  0.012374     24.000000
  0.074244  0.012374  0.012374     24.000000
  0.086618  0.012374  0.012374     24.000000
  0.098993  0.012374  0.012374     24.000000
  0.111367  0.012374  0.012374     24.000000
  0.123741  0.012374  0.012374     12.000000
  0.024748  0.024748  0.012374     24.000000
  0.037122  0.024748  0.012374     48.000000
  0.049496  0.024748  0.012374     48.000000
  0.061870  0.024748  0.012374     48.000000
  0.074244  0.024748  0.012374     48.000000
  0.086618  0.024748  0.012374     48.000000
  0.098993  0.024748  0.012374     48.000000
  0.111367  0.024748  0.012374     48.000000
  0.123741  0.024748  0.012374     24.000000
  0.037122  0.037122  0.012374     24.000000
  0.049496  0.037122  0.012374     48.000000
  0.061870  0.037122  0.012374     48.000000
  0.074244  0.037122  0.012374     48.000000
  0.086618  0.037122  0.012374     48.000000
  0.098993  0.037122  0.012374     48.000000
  0.111367  0.037122  0.012374     48.000000
  0.123741  0.037122  0.012374     24.000000
  0.049496  0.049496  0.012374     24.000000
  0.061870  0.049496  0.012374     48.000000
  0.074244  0.049496  0.012374     48.000000
  0.086618  0.049496  0.012374     48.000000
  0.098993  0.049496  0.012374     48.000000
  0.111367  0.049496  0.012374     48.000000
  0.123741  0.049496  0.012374     24.000000
  0.061870  0.061870  0.012374     24.000000
  0.074244  0.061870  0.012374     48.000000
  0.086618  0.061870  0.012374     48.000000
  0.098993  0.061870  0.012374     48.000000
  0.111367  0.061870  0.012374     48.000000
  0.123741  0.061870  0.012374     24.000000
  0.074244  0.074244  0.012374     24.000000
  0.086618  0.074244  0.012374     48.000000
  0.098993  0.074244  0.012374     48.000000
  0.111367  0.074244  0.012374     48.000000
  0.123741  0.074244  0.012374     24.000000
  0.086618  0.086618  0.012374     24.000000
  0.098993  0.086618  0.012374     48.000000
  0.111367  0.086618  0.012374     48.000000
  0.123741  0.086618  0.012374     24.000000
  0.098993  0.098993  0.012374     24.000000
  0.111367  0.098993  0.012374     48.000000
  0.123741  0.098993  0.012374     24.000000
  0.111367  0.111367  0.012374     24.000000
  0.123741  0.111367  0.012374     24.000000
  0.123741  0.123741  0.012374      6.000000
  0.024748  0.024748  0.024748      8.000000
  0.037122  0.024748  0.024748     24.000000
  0.049496  0.024748  0.024748     24.000000
  0.061870  0.024748  0.024748     24.000000
  0.074244  0.024748  0.024748     24.000000
  0.086618  0.024748  0.024748     24.000000
  0.098993  0.024748  0.024748     24.000000
  0.111367  0.024748  0.024748     24.000000
  0.123741  0.024748  0.024748     12.000000
  0.037122  0.037122  0.024748     24.000000
  0.049496  0.037122  0.024748     48.000000
  0.061870  0.037122  0.024748     48.000000
  0.074244  0.037122  0.024748     48.000000
  0.086618  0.037122  0.024748     48.000000
  0.098993  0.037122  0.024748     48.000000
  0.111367  0.037122  0.024748     48.000000
  0.123741  0.037122  0.024748     24.000000
  0.049496  0.049496  0.024748     24.000000
  0.061870  0.049496  0.024748     48.000000
  0.074244  0.049496  0.024748     48.000000
  0.086618  0.049496  0.024748     48.000000
  0.098993  0.049496  0.024748     48.000000
  0.111367  0.049496  0.024748     48.000000
  0.123741  0.049496  0.024748     24.000000
  0.061870  0.061870  0.024748     24.000000
  0.074244  0.061870  0.024748     48.000000
  0.086618  0.061870  0.024748     48.000000
  0.098993  0.061870  0.024748     48.000000
  0.111367  0.061870  0.024748     48.000000
  0.123741  0.061870  0.024748     24.000000
  0.074244  0.074244  0.024748     24.000000
  0.086618  0.074244  0.024748     48.000000
  0.098993  0.074244  0.024748     48.000000
  0.111367  0.074244  0.024748     48.000000
  0.123741  0.074244  0.024748     24.000000
  0.086618  0.086618  0.024748     24.000000
  0.098993  0.086618  0.024748     48.000000
  0.111367  0.086618  0.024748     48.000000
  0.123741  0.086618  0.024748     24.000000
  0.098993  0.098993  0.024748     24.000000
  0.111367  0.098993  0.024748     48.000000
  0.123741  0.098993  0.024748     24.000000
  0.111367  0.111367  0.024748     24.000000
  0.123741  0.111367  0.024748     24.000000
  0.123741  0.123741  0.024748      6.000000
  0.037122  0.037122  0.037122      8.000000
  0.049496  0.037122  0.037122     24.000000
  0.061870  0.037122  0.037122     24.000000
  0.074244  0.037122  0.037122     24.000000
  0.086618  0.037122  0.037122     24.000000
  0.098993  0.037122  0.037122     24.000000
  0.111367  0.037122  0.037122     24.000000
  0.123741  0.037122  0.037122     12.000000
  0.049496  0.049496  0.037122     24.000000
  0.061870  0.049496  0.037122     48.000000
  0.074244  0.049496  0.037122     48.000000
  0.086618  0.049496  0.037122     48.000000
  0.098993  0.049496  0.037122     48.000000
  0.111367  0.049496  0.037122     48.000000
  0.123741  0.049496  0.037122     24.000000
  0.061870  0.061870  0.037122     24.000000
  0.074244  0.061870  0.037122     48.000000
  0.086618  0.061870  0.037122     48.000000
  0.098993  0.061870  0.037122     48.000000
  0.111367  0.061870  0.037122     48.000000
  0.123741  0.061870  0.037122     24.000000
  0.074244  0.074244  0.037122     24.000000
  0.086618  0.074244  0.037122     48.000000
  0.098993  0.074244  0.037122     48.000000
  0.111367  0.074244  0.037122     48.000000
  0.123741  0.074244  0.037122     24.000000
  0.086618  0.086618  0.037122     24.000000
  0.098993  0.086618  0.037122     48.000000
  0.111367  0.086618  0.037122     48.000000
  0.123741  0.086618  0.037122     24.000000
  0.098993  0.098993  0.037122     24.000000
  0.111367  0.098993  0.037122     48.000000
  0.123741  0.098993  0.037122     24.000000
  0.111367  0.111367  0.037122     24.000000
  0.123741  0.111367  0.037122     24.000000
  0.123741  0.123741  0.037122      6.000000
  0.049496  0.049496  0.049496      8.000000
  0.061870  0.049496  0.049496     24.000000
  0.074244  0.049496  0.049496     24.000000
  0.086618  0.049496  0.049496     24.000000
  0.098993  0.049496  0.049496     24.000000
  0.111367  0.049496  0.049496     24.000000
  0.123741  0.049496  0.049496     12.000000
  0.061870  0.061870  0.049496     24.000000
  0.074244  0.061870  0.049496     48.000000
  0.086618  0.061870  0.049496     48.000000
  0.098993  0.061870  0.049496     48.000000
  0.111367  0.061870  0.049496     48.000000
  0.123741  0.061870  0.049496     24.000000
  0.074244  0.074244  0.049496     24.000000
  0.086618  0.074244  0.049496     48.000000
  0.098993  0.074244  0.049496     48.000000
  0.111367  0.074244  0.049496     48.000000
  0.123741  0.074244  0.049496     24.000000
  0.086618  0.086618  0.049496     24.000000
  0.098993  0.086618  0.049496     48.000000
  0.111367  0.086618  0.049496     48.000000
  0.123741  0.086618  0.049496     24.000000
  0.098993  0.098993  0.049496     24.000000
  0.111367  0.098993  0.049496     48.000000
  0.123741  0.098993  0.049496     24.000000
  0.111367  0.111367  0.049496     24.000000
  0.123741  0.111367  0.049496     24.000000
  0.123741  0.123741  0.049496      6.000000
  0.061870  0.061870  0.061870      8.000000
  0.074244  0.061870  0.061870     24.000000
  0.086618  0.061870  0.061870     24.000000
  0.098993  0.061870  0.061870     24.000000
  0.111367  0.061870  0.061870     24.000000
  0.123741  0.061870  0.061870     12.000000
  0.074244  0.074244  0.061870     24.000000
  0.086618  0.074244  0.061870     48.000000
  0.098993  0.074244  0.061870     48.000000
  0.111367  0.074244  0.061870     48.000000
  0.123741  0.074244  0.061870     24.000000
  0.086618  0.086618  0.061870     24.000000
  0.098993  0.086618  0.061870     48.000000
  0.111367  0.086618  0.061870     48.000000
  0.123741  0.086618  0.061870     24.000000
  0.098993  0.098993  0.061870     24.000000
  0.111367  0.098993  0.061870     48.000000
  0.123741  0.098993  0.061870     24.000000
  0.111367  0.111367  0.061870     24.000000
  0.123741  0.111367  0.061870     24.000000
  0.123741  0.123741  0.061870      6.000000
  0.074244  0.074244  0.074244      8.000000
  0.086618  0.074244  0.074244     24.000000
  0.098993  0.074244  0.074244     24.000000
  0.111367  0.074244  0.074244     24.000000
  0.123741  0.074244  0.074244     12.000000
  0.086618  0.086618  0.074244     24.000000
  0.098993  0.086618  0.074244     48.000000
  0.111367  0.086618  0.074244     48.000000
  0.123741  0.086618  0.074244     24.000000
  0.098993  0.098993  0.074244     24.000000
  0.111367  0.098993  0.074244     48.000000
  0.123741  0.098993  0.074244     24.000000
  0.111367  0.111367  0.074244     24.000000
  0.123741  0.111367  0.074244     24.000000
  0.123741  0.123741  0.074244      6.000000
  0.086618  0.086618  0.086618      8.000000
  0.098993  0.086618  0.086618     24.000000
  0.111367  0.086618  0.086618     24.000000
  0.123741  0.086618  0.086618     12.000000
  0.098993  0.098993  0.086618     24.000000
  0.111367  0.098993  0.086618     48.000000
  0.123741  0.098993  0.086618     24.000000
  0.111367  0.111367  0.086618     24.000000
  0.123741  0.111367  0.086618     24.000000
  0.123741  0.123741  0.086618      6.000000
  0.098993  0.098993  0.098993      8.000000
  0.111367  0.098993  0.098993     24.000000
  0.123741  0.098993  0.098993     12.000000
  0.111367  0.111367  0.098993     24.000000
  0.123741  0.111367  0.098993     24.000000
  0.123741  0.123741  0.098993      6.000000
  0.111367  0.111367  0.111367      8.000000
  0.123741  0.111367  0.111367     12.000000
  0.123741  0.123741  0.111367      6.000000
  0.123741  0.123741  0.123741      1.000000
 


--------------------------------------------------------------------------------------------------------




 Dimension of arrays:
   k-points           NKPTS =    286   k-points in BZ     NKDIM =    286   number of bands    NBANDS=     24
   number of dos      NEDOS =   5000   number of ions     NIONS =      4
   non local maximal  LDIM  =      4   non local SUM 2l+1 LMDIM =      8
   total plane-waves  NPLWV =  32768
   max r-space proj   IRMAX =      1   max aug-charges    IRDMAX=  19528
   dimension x,y,z NGX =    32 NGY =   32 NGZ =   32
   dimension x,y,z NGXF=    64 NGYF=   64 NGZF=   64
   support grid    NGXF=    64 NGYF=   64 NGZF=   64
   ions per type =               4
 NGX,Y,Z   is equivalent  to a cutoff of  13.17, 13.17, 13.17 a.u.
 NGXF,Y,Z  is equivalent  to a cutoff of  26.33, 26.33, 26.33 a.u.


 I would recommend the setting:
   dimension x,y,z NGX =    32 NGY =   32 NGZ =   32
 SYSTEM =  Al_225                                  
 POSCAR =  Al                                      

 Startparameter for this run:
   NWRITE =      2    write-flag & timer
   PREC   = accura    normal or accurate (medium, high low for compatibility)
   ISTART =      1    job   : 0-new  1-cont  2-samecut
   ICHARG =      1    charge: 1-file 2-atom 10-const
   ISPIN  =      2    spin polarized calculation?
   LNONCOLLINEAR =      F non collinear calculations
   LSORBIT =      F    spin-orbit coupling
   INIWAV =      1    electr: 0-lowe 1-rand  2-diag
   LASPH  =      F    aspherical Exc in radial PAW
   METAGGA=      F    non-selfconsistent MetaGGA calc.

 Electronic Relaxation 1
   ENCUT  =  600.0 eV  44.10 Ry    6.64 a.u.   8.07  8.07  8.07*2*pi/ulx,y,z
   ENINI  =  600.0     initial cutoff
   ENAUG  =  291.1 eV  augmentation charge cutoff
   NELM   =    200;   NELMIN=  6; NELMDL=  0     # of ELM steps 
   EDIFF  = 0.1E-07   stopping-criterion for ELM
   LREAL  =      F    real-space projection
   NLSPLINE    = F    spline interpolate recip. space projectors
   LCOMPAT=      F    compatible to vasp.4.4
   GGA_COMPAT  = T    GGA compatible to vasp.4.4-vasp.4.6
   LMAXPAW     = -100 max onsite density
   LMAXMIX     =    2 max onsite mixed and CHGCAR
   VOSKOWN=      0    Vosko Wilk Nusair interpolation
   ROPT   =    0.00000
 Ionic relaxation
   EDIFFG = 0.1E-06   stopping-criterion for IOM
   NSW    =      0    number of steps for IOM
   NBLOCK =      1;   KBLOCK =      1    inner block; outer block 
   IBRION =     -1    ionic relax: 0-MD 1-quasi-New 2-CG
   NFREE  =      6    steps in history (QN), initial steepest desc. (CG)
   ISIF   =      2    stress and relaxation
   IWAVPR =     10    prediction:  0-non 1-charg 2-wave 3-comb
   ISYM   =      2    0-nonsym 1-usesym 2-fastsym
   LCORR  =      T    Harris-Foulkes like correction to forces

   POTIM  = 0.5000    time-step for ionic-motion
   TEIN   =    0.0    initial temperature
   TEBEG  =    0.0;   TEEND  =   0.0 temperature during run
   SMASS  =  -3.00    Nose mass-parameter (am)
   estimated Nose-frequenzy (Omega)   =  0.10E-29 period in steps =****** mass=  -0.373E-27a.u.
   SCALEE = 1.0000    scale energy and forces
   NPACO  =    256;   APACO  = 16.0  distance and # of slots for P.C.
   PSTRESS=    0.0 pullay stress

  Mass of Ions in am
   POMASS =  26.98
  Ionic Valenz
   ZVAL   =   3.00
  Atomic Wigner-Seitz radii
   RWIGS  =  -1.00
  virtual crystal weights 
   VCA    =   1.00
   NELECT =      12.0000    total number of electrons
   NUPDOWN=      -1.0000    fix difference up-down

 DOS related values:
   EMIN   = -25.00;   EMAX   = 25.00  energy-range for DOS
   EFERMI =   0.00
   ISMEAR =    -1;   SIGMA  =   0.10  broadening in eV -4-tet -1-fermi 0-gaus

 Electronic relaxation 2 (details)
   IALGO  =     38    algorithm
   LDIAG  =      T    sub-space diagonalisation (order eigenvalues)
   LSUBROT=      F    optimize rotation matrix (better conditioning)
   TURBO    =      0    0=normal 1=particle mesh
   IRESTART =      0    0=no restart 2=restart with 2 vectors
   NREBOOT  =      0    no. of reboots
   NMIN     =      0    reboot dimension
   EREF     =   0.00    reference energy to select bands
   IMIX   =      4    mixing-type and parameters
     AMIX     =   0.40;   BMIX     =  1.00
     AMIX_MAG =   1.60;   BMIX_MAG =  1.00
     AMIN     =   0.10
     WC   =   100.;   INIMIX=   1;  MIXPRE=   1;  MAXMIX= -45

 Intra band minimization:
   WEIMIN = 0.0000     energy-eigenvalue tresh-hold
   EBREAK =  0.10E-09  absolut break condition
   DEPER  =   0.30     relativ break condition  

   TIME   =   0.40     timestep for ELM

  volume/ion in A,a.u.               =      16.49       111.30
  Fermi-wavevector in a.u.,A,eV,Ry     =   0.927565  1.752843 11.706134  0.860377
  Thomas-Fermi vector in A             =   2.053648
 
 Write flags
   LWAVE  =      T    write WAVECAR
   LCHARG =      T    write CHGCAR
   LVTOT  =      F    write LOCPOT, total local potential
   LVHAR  =      F    write LOCPOT, Hartree potential only
   LELF   =      F    write electronic localiz. function (ELF)
   LORBIT =     11    0 simple, 1 ext, 2 COOP (PROOUT)


 Dipole corrections
   LMONO  =      F    monopole corrections only (constant potential shift)
   LDIPOL =      F    correct potential (dipole corrections)
   IDIPOL =      0    1-x, 2-y, 3-z, 4-all directions 
   EPSILON=  1.0000000 bulk dielectric constant

 Exchange correlation treatment:
   GGA     =    PE    GGA type
   LEXCH   =     8    internal setting for exchange type
   VOSKOWN=      0    Vosko Wilk Nusair interpolation
   LHFCALC =     F    Hartree Fock is set to
   LHFONE  =     F    Hartree Fock one center treatment
   AEXX    =    0.0000 exact exchange contribution

 Linear response parameters
   LEPSILON=     F    determine dielectric tensor
   LRPA    =     F    only Hartree local field effects (RPA)
   LNABLA  =     F    use nabla operator in PAW spheres
   LVEL    =     F    velocity operator in full k-point grid
   LINTERFAST=   F  fast interpolation
   KINTER  =     0    interpolate to denser k-point grid
   CSHIFT  =0.1000    complex shift for real part using Kramers Kronig
   OMEGAMAX=  -1.0    maximum frequency
   DEG_THRESHOLD= 0.2000000E-02 threshold for treating states as degnerate
   RTIME   =    0.100 relaxation time in fs

 Orbital magnetization related:
   ORBITALMAG=     F  switch on orbital magnetization
   LCHIMAG   =     F  perturbation theory with respect to B field
   DQ        =  0.001000  dq finite difference perturbation B field



--------------------------------------------------------------------------------------------------------


 Static calculation
 charge density and potential will be updated during run
 spin polarized calculation
 Variant of blocked Davidson
 Davidson routine will perform the subspace rotation
 perform sub-space diagonalisation
    after iterative eigenvector-optimisation
 modified Broyden-mixing scheme, WC =      100.0
 initial mixing is a Kerker type mixing with AMIX =  0.4000 and BMIX =      1.0000
 Hartree-type preconditioning will be used
 using additional bands           18
 reciprocal scheme for non local part
 use partial core corrections
 calculate Harris-corrections to forces 
   (improved forces if not selfconsistent)
 use gradient corrections 
 use of overlap-Matrix (Vanderbilt PP)
 Fermi-smearing in eV        SIGMA  =   0.10


--------------------------------------------------------------------------------------------------------


  energy-cutoff  :      600.00
  volume of cell :       65.97
      direct lattice vectors                 reciprocal lattice vectors
     4.040709377  0.000000000  0.000000000     0.247481298  0.000000000  0.000000000
     0.000000000  4.040709377  0.000000000     0.000000000  0.247481298  0.000000000
     0.000000000  0.000000000  4.040709377     0.000000000  0.000000000  0.247481298

  length of vectors
     4.040709377  4.040709377  4.040709377     0.247481298  0.247481298  0.247481298


 
 old parameters found on file WAVECAR:
  energy-cutoff  :      600.00
  volume of cell :       66.42
      direct lattice vectors                 reciprocal lattice vectors
     4.049799919  0.000000000  0.000000000     0.246925779  0.000000000  0.000000000
     0.000000000  4.049799919  0.000000000     0.000000000  0.246925779  0.000000000
     0.000000000  0.000000000  4.049799919     0.000000000  0.000000000  0.246925779

  length of vectors

 
 k-points in units of 2pi/SCALE and weight: K-points                                
   0.00000000  0.00000000  0.00000000       0.000
   0.01237406  0.00000000  0.00000000       0.001
   0.02474813  0.00000000  0.00000000       0.001
   0.03712219  0.00000000  0.00000000       0.001
   0.04949626  0.00000000  0.00000000       0.001
   0.06187032  0.00000000  0.00000000       0.001
   0.07424439  0.00000000  0.00000000       0.001
   0.08661845  0.00000000  0.00000000       0.001
   0.09899252  0.00000000  0.00000000       0.001
   0.11136658  0.00000000  0.00000000       0.001
   0.12374065  0.00000000  0.00000000       0.000
   0.01237406  0.01237406  0.00000000       0.002
   0.02474813  0.01237406  0.00000000       0.003
   0.03712219  0.01237406  0.00000000       0.003
   0.04949626  0.01237406  0.00000000       0.003
   0.06187032  0.01237406  0.00000000       0.003
   0.07424439  0.01237406  0.00000000       0.003
   0.08661845  0.01237406  0.00000000       0.003
   0.09899252  0.01237406  0.00000000       0.003
   0.11136658  0.01237406  0.00000000       0.003
   0.12374065  0.01237406  0.00000000       0.002
   0.02474813  0.02474813  0.00000000       0.002
   0.03712219  0.02474813  0.00000000       0.003
   0.04949626  0.02474813  0.00000000       0.003
   0.06187032  0.02474813  0.00000000       0.003
   0.07424439  0.02474813  0.00000000       0.003
   0.08661845  0.02474813  0.00000000       0.003
   0.09899252  0.02474813  0.00000000       0.003
   0.11136658  0.02474813  0.00000000       0.003
   0.12374065  0.02474813  0.00000000       0.002
   0.03712219  0.03712219  0.00000000       0.002
   0.04949626  0.03712219  0.00000000       0.003
   0.06187032  0.03712219  0.00000000       0.003
   0.07424439  0.03712219  0.00000000       0.003
   0.08661845  0.03712219  0.00000000       0.003
   0.09899252  0.03712219  0.00000000       0.003
   0.11136658  0.03712219  0.00000000       0.003
   0.12374065  0.03712219  0.00000000       0.002
   0.04949626  0.04949626  0.00000000       0.002
   0.06187032  0.04949626  0.00000000       0.003
   0.07424439  0.04949626  0.00000000       0.003
   0.08661845  0.04949626  0.00000000       0.003
   0.09899252  0.04949626  0.00000000       0.003
   0.11136658  0.04949626  0.00000000       0.003
   0.12374065  0.04949626  0.00000000       0.002
   0.06187032  0.06187032  0.00000000       0.002
   0.07424439  0.06187032  0.00000000       0.003
   0.08661845  0.06187032  0.00000000       0.003
   0.09899252  0.06187032  0.00000000       0.003
   0.11136658  0.06187032  0.00000000       0.003
   0.12374065  0.06187032  0.00000000       0.002
   0.07424439  0.07424439  0.00000000       0.002
   0.08661845  0.07424439  0.00000000       0.003
   0.09899252  0.07424439  0.00000000       0.003
   0.11136658  0.07424439  0.00000000       0.003
   0.12374065  0.07424439  0.00000000       0.002
   0.08661845  0.08661845  0.00000000       0.002
   0.09899252  0.08661845  0.00000000       0.003
   0.11136658  0.08661845  0.00000000       0.003
   0.12374065  0.08661845  0.00000000       0.002
   0.09899252  0.09899252  0.00000000       0.002
   0.11136658  0.09899252  0.00000000       0.003
   0.12374065  0.09899252  0.00000000       0.002
   0.11136658  0.11136658  0.00000000       0.002
   0.12374065  0.11136658  0.00000000       0.002
   0.12374065  0.12374065  0.00000000       0.000
   0.01237406  0.01237406  0.01237406       0.001
   0.02474813  0.01237406  0.01237406       0.003
   0.03712219  0.01237406  0.01237406       0.003
   0.04949626  0.01237406  0.01237406       0.003
   0.06187032  0.01237406  0.01237406       0.003
   0.07424439  0.01237406  0.01237406       0.003
   0.08661845  0.01237406  0.01237406       0.003
   0.09899252  0.01237406  0.01237406       0.003
   0.11136658  0.01237406  0.01237406       0.003
   0.12374065  0.01237406  0.01237406       0.002
   0.02474813  0.02474813  0.01237406       0.003
   0.03712219  0.02474813  0.01237406       0.006
   0.04949626  0.02474813  0.01237406       0.006
   0.06187032  0.02474813  0.01237406       0.006
   0.07424439  0.02474813  0.01237406       0.006
   0.08661845  0.02474813  0.01237406       0.006
   0.09899252  0.02474813  0.01237406       0.006
   0.11136658  0.02474813  0.01237406       0.006
   0.12374065  0.02474813  0.01237406       0.003
   0.03712219  0.03712219  0.01237406       0.003
   0.04949626  0.03712219  0.01237406       0.006
   0.06187032  0.03712219  0.01237406       0.006
   0.07424439  0.03712219  0.01237406       0.006
   0.08661845  0.03712219  0.01237406       0.006
   0.09899252  0.03712219  0.01237406       0.006
   0.11136658  0.03712219  0.01237406       0.006
   0.12374065  0.03712219  0.01237406       0.003
   0.04949626  0.04949626  0.01237406       0.003
   0.06187032  0.04949626  0.01237406       0.006
   0.07424439  0.04949626  0.01237406       0.006
   0.08661845  0.04949626  0.01237406       0.006
   0.09899252  0.04949626  0.01237406       0.006
   0.11136658  0.04949626  0.01237406       0.006
   0.12374065  0.04949626  0.01237406       0.003
   0.06187032  0.06187032  0.01237406       0.003
   0.07424439  0.06187032  0.01237406       0.006
   0.08661845  0.06187032  0.01237406       0.006
   0.09899252  0.06187032  0.01237406       0.006
   0.11136658  0.06187032  0.01237406       0.006
   0.12374065  0.06187032  0.01237406       0.003
   0.07424439  0.07424439  0.01237406       0.003
   0.08661845  0.07424439  0.01237406       0.006
   0.09899252  0.07424439  0.01237406       0.006
   0.11136658  0.07424439  0.01237406       0.006
   0.12374065  0.07424439  0.01237406       0.003
   0.08661845  0.08661845  0.01237406       0.003
   0.09899252  0.08661845  0.01237406       0.006
   0.11136658  0.08661845  0.01237406       0.006
   0.12374065  0.08661845  0.01237406       0.003
   0.09899252  0.09899252  0.01237406       0.003
   0.11136658  0.09899252  0.01237406       0.006
   0.12374065  0.09899252  0.01237406       0.003
   0.11136658  0.11136658  0.01237406       0.003
   0.12374065  0.11136658  0.01237406       0.003
   0.12374065  0.12374065  0.01237406       0.001
   0.02474813  0.02474813  0.02474813       0.001
   0.03712219  0.02474813  0.02474813       0.003
   0.04949626  0.02474813  0.02474813       0.003
   0.06187032  0.02474813  0.02474813       0.003
   0.07424439  0.02474813  0.02474813       0.003
   0.08661845  0.02474813  0.02474813       0.003
   0.09899252  0.02474813  0.02474813       0.003
   0.11136658  0.02474813  0.02474813       0.003
   0.12374065  0.02474813  0.02474813       0.002
   0.03712219  0.03712219  0.02474813       0.003
   0.04949626  0.03712219  0.02474813       0.006
   0.06187032  0.03712219  0.02474813       0.006
   0.07424439  0.03712219  0.02474813       0.006
   0.08661845  0.03712219  0.02474813       0.006
   0.09899252  0.03712219  0.02474813       0.006
   0.11136658  0.03712219  0.02474813       0.006
   0.12374065  0.03712219  0.02474813       0.003
   0.04949626  0.04949626  0.02474813       0.003
   0.06187032  0.04949626  0.02474813       0.006
   0.07424439  0.04949626  0.02474813       0.006
   0.08661845  0.04949626  0.02474813       0.006
   0.09899252  0.04949626  0.02474813       0.006
   0.11136658  0.04949626  0.02474813       0.006
   0.12374065  0.04949626  0.02474813       0.003
   0.06187032  0.06187032  0.02474813       0.003
   0.07424439  0.06187032  0.02474813       0.006
   0.08661845  0.06187032  0.02474813       0.006
   0.09899252  0.06187032  0.02474813       0.006
   0.11136658  0.06187032  0.02474813       0.006
   0.12374065  0.06187032  0.02474813       0.003
   0.07424439  0.07424439  0.02474813       0.003
   0.08661845  0.07424439  0.02474813       0.006
   0.09899252  0.07424439  0.02474813       0.006
   0.11136658  0.07424439  0.02474813       0.006
   0.12374065  0.07424439  0.02474813       0.003
   0.08661845  0.08661845  0.02474813       0.003
   0.09899252  0.08661845  0.02474813       0.006
   0.11136658  0.08661845  0.02474813       0.006
   0.12374065  0.08661845  0.02474813       0.003
   0.09899252  0.09899252  0.02474813       0.003
   0.11136658  0.09899252  0.02474813       0.006
   0.12374065  0.09899252  0.02474813       0.003
   0.11136658  0.11136658  0.02474813       0.003
   0.12374065  0.11136658  0.02474813       0.003
   0.12374065  0.12374065  0.02474813       0.001
   0.03712219  0.03712219  0.03712219       0.001
   0.04949626  0.03712219  0.03712219       0.003
   0.06187032  0.03712219  0.03712219       0.003
   0.07424439  0.03712219  0.03712219       0.003
   0.08661845  0.03712219  0.03712219       0.003
   0.09899252  0.03712219  0.03712219       0.003
   0.11136658  0.03712219  0.03712219       0.003
   0.12374065  0.03712219  0.03712219       0.002
   0.04949626  0.04949626  0.03712219       0.003
   0.06187032  0.04949626  0.03712219       0.006
   0.07424439  0.04949626  0.03712219       0.006
   0.08661845  0.04949626  0.03712219       0.006
   0.09899252  0.04949626  0.03712219       0.006
   0.11136658  0.04949626  0.03712219       0.006
   0.12374065  0.04949626  0.03712219       0.003
   0.06187032  0.06187032  0.03712219       0.003
   0.07424439  0.06187032  0.03712219       0.006
   0.08661845  0.06187032  0.03712219       0.006
   0.09899252  0.06187032  0.03712219       0.006
   0.11136658  0.06187032  0.03712219       0.006
   0.12374065  0.06187032  0.03712219       0.003
   0.07424439  0.07424439  0.03712219       0.003
   0.08661845  0.07424439  0.03712219       0.006
   0.09899252  0.07424439  0.03712219       0.006
   0.11136658  0.07424439  0.03712219       0.006
   0.12374065  0.07424439  0.03712219       0.003
   0.08661845  0.08661845  0.03712219       0.003
   0.09899252  0.08661845  0.03712219       0.006
   0.11136658  0.08661845  0.03712219       0.006
   0.12374065  0.08661845  0.03712219       0.003
   0.09899252  0.09899252  0.03712219       0.003
   0.11136658  0.09899252  0.03712219       0.006
   0.12374065  0.09899252  0.03712219       0.003
   0.11136658  0.11136658  0.03712219       0.003
   0.12374065  0.11136658  0.03712219       0.003
   0.12374065  0.12374065  0.03712219       0.001
   0.04949626  0.04949626  0.04949626       0.001
   0.06187032  0.04949626  0.04949626       0.003
   0.07424439  0.04949626  0.04949626       0.003
   0.08661845  0.04949626  0.04949626       0.003
   0.09899252  0.04949626  0.04949626       0.003
   0.11136658  0.04949626  0.04949626       0.003
   0.12374065  0.04949626  0.04949626       0.002
   0.06187032  0.06187032  0.04949626       0.003
   0.07424439  0.06187032  0.04949626       0.006
   0.08661845  0.06187032  0.04949626       0.006
   0.09899252  0.06187032  0.04949626       0.006
   0.11136658  0.06187032  0.04949626       0.006
   0.12374065  0.06187032  0.04949626       0.003
   0.07424439  0.07424439  0.04949626       0.003
   0.08661845  0.07424439  0.04949626       0.006
   0.09899252  0.07424439  0.04949626       0.006
   0.11136658  0.07424439  0.04949626       0.006
   0.12374065  0.07424439  0.04949626       0.003
   0.08661845  0.08661845  0.04949626       0.003
   0.09899252  0.08661845  0.04949626       0.006
   0.11136658  0.08661845  0.04949626       0.006
   0.12374065  0.08661845  0.04949626       0.003
   0.09899252  0.09899252  0.04949626       0.003
   0.11136658  0.09899252  0.04949626       0.006
   0.12374065  0.09899252  0.04949626       0.003
   0.11136658  0.11136658  0.04949626       0.003
   0.12374065  0.11136658  0.04949626       0.003
   0.12374065  0.12374065  0.04949626       0.001
   0.06187032  0.06187032  0.06187032       0.001
   0.07424439  0.06187032  0.06187032       0.003
   0.08661845  0.06187032  0.06187032       0.003
   0.09899252  0.06187032  0.06187032       0.003
   0.11136658  0.06187032  0.06187032       0.003
   0.12374065  0.06187032  0.06187032       0.002
   0.07424439  0.07424439  0.06187032       0.003
   0.08661845  0.07424439  0.06187032       0.006
   0.09899252  0.07424439  0.06187032       0.006
   0.11136658  0.07424439  0.06187032       0.006
   0.12374065  0.07424439  0.06187032       0.003
   0.08661845  0.08661845  0.06187032       0.003
   0.09899252  0.08661845  0.06187032       0.006
   0.11136658  0.08661845  0.06187032       0.006
   0.12374065  0.08661845  0.06187032       0.003
   0.09899252  0.09899252  0.06187032       0.003
   0.11136658  0.09899252  0.06187032       0.006
   0.12374065  0.09899252  0.06187032       0.003
   0.11136658  0.11136658  0.06187032       0.003
   0.12374065  0.11136658  0.06187032       0.003
   0.12374065  0.12374065  0.06187032       0.001
   0.07424439  0.07424439  0.07424439       0.001
   0.08661845  0.07424439  0.07424439       0.003
   0.09899252  0.07424439  0.07424439       0.003
   0.11136658  0.07424439  0.07424439       0.003
   0.12374065  0.07424439  0.07424439       0.002
   0.08661845  0.08661845  0.07424439       0.003
   0.09899252  0.08661845  0.07424439       0.006
   0.11136658  0.08661845  0.07424439       0.006
   0.12374065  0.08661845  0.07424439       0.003
   0.09899252  0.09899252  0.07424439       0.003
   0.11136658  0.09899252  0.07424439       0.006
   0.12374065  0.09899252  0.07424439       0.003
   0.11136658  0.11136658  0.07424439       0.003
   0.12374065  0.11136658  0.07424439       0.003
   0.12374065  0.12374065  0.07424439       0.001
   0.08661845  0.08661845  0.08661845       0.001
   0.09899252  0.08661845  0.08661845       0.003
   0.11136658  0.08661845  0.08661845       0.003
   0.12374065  0.08661845  0.08661845       0.002
   0.09899252  0.09899252  0.08661845       0.003
   0.11136658  0.09899252  0.08661845       0.006
   0.12374065  0.09899252  0.08661845       0.003
   0.11136658  0.11136658  0.08661845       0.003
   0.12374065  0.11136658  0.08661845       0.003
   0.12374065  0.12374065  0.08661845       0.001
   0.09899252  0.09899252  0.09899252       0.001
   0.11136658  0.09899252  0.09899252       0.003
   0.12374065  0.09899252  0.09899252       0.002
   0.11136658  0.11136658  0.09899252       0.003
   0.12374065  0.11136658  0.09899252       0.003
   0.12374065  0.12374065  0.09899252       0.001
   0.11136658  0.11136658  0.11136658       0.001
   0.12374065  0.11136658  0.11136658       0.002
   0.12374065  0.12374065  0.11136658       0.001
   0.12374065  0.12374065  0.12374065       0.000
 
 k-points in reciprocal lattice and weights: K-points                                
   0.00000000  0.00000000  0.00000000       0.000
   0.05000000  0.00000000  0.00000000       0.001
   0.10000000  0.00000000  0.00000000       0.001
   0.15000000  0.00000000  0.00000000       0.001
   0.20000000  0.00000000  0.00000000       0.001
   0.25000000  0.00000000  0.00000000       0.001
   0.30000000  0.00000000  0.00000000       0.001
   0.35000000  0.00000000  0.00000000       0.001
   0.40000000  0.00000000  0.00000000       0.001
   0.45000000  0.00000000  0.00000000       0.001
   0.50000000  0.00000000  0.00000000       0.000
   0.05000000  0.05000000  0.00000000       0.002
   0.10000000  0.05000000  0.00000000       0.003
   0.15000000  0.05000000  0.00000000       0.003
   0.20000000  0.05000000  0.00000000       0.003
   0.25000000  0.05000000  0.00000000       0.003
   0.30000000  0.05000000  0.00000000       0.003
   0.35000000  0.05000000  0.00000000       0.003
   0.40000000  0.05000000  0.00000000       0.003
   0.45000000  0.05000000  0.00000000       0.003
   0.50000000  0.05000000  0.00000000       0.002
   0.10000000  0.10000000  0.00000000       0.002
   0.15000000  0.10000000  0.00000000       0.003
   0.20000000  0.10000000  0.00000000       0.003
   0.25000000  0.10000000  0.00000000       0.003
   0.30000000  0.10000000  0.00000000       0.003
   0.35000000  0.10000000  0.00000000       0.003
   0.40000000  0.10000000  0.00000000       0.003
   0.45000000  0.10000000  0.00000000       0.003
   0.50000000  0.10000000  0.00000000       0.002
   0.15000000  0.15000000  0.00000000       0.002
   0.20000000  0.15000000  0.00000000       0.003
   0.25000000  0.15000000  0.00000000       0.003
   0.30000000  0.15000000  0.00000000       0.003
   0.35000000  0.15000000  0.00000000       0.003
   0.40000000  0.15000000  0.00000000       0.003
   0.45000000  0.15000000  0.00000000       0.003
   0.50000000  0.15000000  0.00000000       0.002
   0.20000000  0.20000000  0.00000000       0.002
   0.25000000  0.20000000  0.00000000       0.003
   0.30000000  0.20000000  0.00000000       0.003
   0.35000000  0.20000000  0.00000000       0.003
   0.40000000  0.20000000  0.00000000       0.003
   0.45000000  0.20000000  0.00000000       0.003
   0.50000000  0.20000000  0.00000000       0.002
   0.25000000  0.25000000  0.00000000       0.002
   0.30000000  0.25000000  0.00000000       0.003
   0.35000000  0.25000000  0.00000000       0.003
   0.40000000  0.25000000  0.00000000       0.003
   0.45000000  0.25000000  0.00000000       0.003
   0.50000000  0.25000000  0.00000000       0.002
   0.30000000  0.30000000  0.00000000       0.002
   0.35000000  0.30000000  0.00000000       0.003
   0.40000000  0.30000000  0.00000000       0.003
   0.45000000  0.30000000  0.00000000       0.003
   0.50000000  0.30000000  0.00000000       0.002
   0.35000000  0.35000000  0.00000000       0.002
   0.40000000  0.35000000  0.00000000       0.003
   0.45000000  0.35000000  0.00000000       0.003
   0.50000000  0.35000000  0.00000000       0.002
   0.40000000  0.40000000  0.00000000       0.002
   0.45000000  0.40000000  0.00000000       0.003
   0.50000000  0.40000000  0.00000000       0.002
   0.45000000  0.45000000  0.00000000       0.002
   0.50000000  0.45000000  0.00000000       0.002
   0.50000000  0.50000000  0.00000000       0.000
   0.05000000  0.05000000  0.05000000       0.001
   0.10000000  0.05000000  0.05000000       0.003
   0.15000000  0.05000000  0.05000000       0.003
   0.20000000  0.05000000  0.05000000       0.003
   0.25000000  0.05000000  0.05000000       0.003
   0.30000000  0.05000000  0.05000000       0.003
   0.35000000  0.05000000  0.05000000       0.003
   0.40000000  0.05000000  0.05000000       0.003
   0.45000000  0.05000000  0.05000000       0.003
   0.50000000  0.05000000  0.05000000       0.002
   0.10000000  0.10000000  0.05000000       0.003
   0.15000000  0.10000000  0.05000000       0.006
   0.20000000  0.10000000  0.05000000       0.006
   0.25000000  0.10000000  0.05000000       0.006
   0.30000000  0.10000000  0.05000000       0.006
   0.35000000  0.10000000  0.05000000       0.006
   0.40000000  0.10000000  0.05000000       0.006
   0.45000000  0.10000000  0.05000000       0.006
   0.50000000  0.10000000  0.05000000       0.003
   0.15000000  0.15000000  0.05000000       0.003
   0.20000000  0.15000000  0.05000000       0.006
   0.25000000  0.15000000  0.05000000       0.006
   0.30000000  0.15000000  0.05000000       0.006
   0.35000000  0.15000000  0.05000000       0.006
   0.40000000  0.15000000  0.05000000       0.006
   0.45000000  0.15000000  0.05000000       0.006
   0.50000000  0.15000000  0.05000000       0.003
   0.20000000  0.20000000  0.05000000       0.003
   0.25000000  0.20000000  0.05000000       0.006
   0.30000000  0.20000000  0.05000000       0.006
   0.35000000  0.20000000  0.05000000       0.006
   0.40000000  0.20000000  0.05000000       0.006
   0.45000000  0.20000000  0.05000000       0.006
   0.50000000  0.20000000  0.05000000       0.003
   0.25000000  0.25000000  0.05000000       0.003
   0.30000000  0.25000000  0.05000000       0.006
   0.35000000  0.25000000  0.05000000       0.006
   0.40000000  0.25000000  0.05000000       0.006
   0.45000000  0.25000000  0.05000000       0.006
   0.50000000  0.25000000  0.05000000       0.003
   0.30000000  0.30000000  0.05000000       0.003
   0.35000000  0.30000000  0.05000000       0.006
   0.40000000  0.30000000  0.05000000       0.006
   0.45000000  0.30000000  0.05000000       0.006
   0.50000000  0.30000000  0.05000000       0.003
   0.35000000  0.35000000  0.05000000       0.003
   0.40000000  0.35000000  0.05000000       0.006
   0.45000000  0.35000000  0.05000000       0.006
   0.50000000  0.35000000  0.05000000       0.003
   0.40000000  0.40000000  0.05000000       0.003
   0.45000000  0.40000000  0.05000000       0.006
   0.50000000  0.40000000  0.05000000       0.003
   0.45000000  0.45000000  0.05000000       0.003
   0.50000000  0.45000000  0.05000000       0.003
   0.50000000  0.50000000  0.05000000       0.001
   0.10000000  0.10000000  0.10000000       0.001
   0.15000000  0.10000000  0.10000000       0.003
   0.20000000  0.10000000  0.10000000       0.003
   0.25000000  0.10000000  0.10000000       0.003
   0.30000000  0.10000000  0.10000000       0.003
   0.35000000  0.10000000  0.10000000       0.003
   0.40000000  0.10000000  0.10000000       0.003
   0.45000000  0.10000000  0.10000000       0.003
   0.50000000  0.10000000  0.10000000       0.002
   0.15000000  0.15000000  0.10000000       0.003
   0.20000000  0.15000000  0.10000000       0.006
   0.25000000  0.15000000  0.10000000       0.006
   0.30000000  0.15000000  0.10000000       0.006
   0.35000000  0.15000000  0.10000000       0.006
   0.40000000  0.15000000  0.10000000       0.006
   0.45000000  0.15000000  0.10000000       0.006
   0.50000000  0.15000000  0.10000000       0.003
   0.20000000  0.20000000  0.10000000       0.003
   0.25000000  0.20000000  0.10000000       0.006
   0.30000000  0.20000000  0.10000000       0.006
   0.35000000  0.20000000  0.10000000       0.006
   0.40000000  0.20000000  0.10000000       0.006
   0.45000000  0.20000000  0.10000000       0.006
   0.50000000  0.20000000  0.10000000       0.003
   0.25000000  0.25000000  0.10000000       0.003
   0.30000000  0.25000000  0.10000000       0.006
   0.35000000  0.25000000  0.10000000       0.006
   0.40000000  0.25000000  0.10000000       0.006
   0.45000000  0.25000000  0.10000000       0.006
   0.50000000  0.25000000  0.10000000       0.003
   0.30000000  0.30000000  0.10000000       0.003
   0.35000000  0.30000000  0.10000000       0.006
   0.40000000  0.30000000  0.10000000       0.006
   0.45000000  0.30000000  0.10000000       0.006
   0.50000000  0.30000000  0.10000000       0.003
   0.35000000  0.35000000  0.10000000       0.003
   0.40000000  0.35000000  0.10000000       0.006
   0.45000000  0.35000000  0.10000000       0.006
   0.50000000  0.35000000  0.10000000       0.003
   0.40000000  0.40000000  0.10000000       0.003
   0.45000000  0.40000000  0.10000000       0.006
   0.50000000  0.40000000  0.10000000       0.003
   0.45000000  0.45000000  0.10000000       0.003
   0.50000000  0.45000000  0.10000000       0.003
   0.50000000  0.50000000  0.10000000       0.001
   0.15000000  0.15000000  0.15000000       0.001
   0.20000000  0.15000000  0.15000000       0.003
   0.25000000  0.15000000  0.15000000       0.003
   0.30000000  0.15000000  0.15000000       0.003
   0.35000000  0.15000000  0.15000000       0.003
   0.40000000  0.15000000  0.15000000       0.003
   0.45000000  0.15000000  0.15000000       0.003
   0.50000000  0.15000000  0.15000000       0.002
   0.20000000  0.20000000  0.15000000       0.003
   0.25000000  0.20000000  0.15000000       0.006
   0.30000000  0.20000000  0.15000000       0.006
   0.35000000  0.20000000  0.15000000       0.006
   0.40000000  0.20000000  0.15000000       0.006
   0.45000000  0.20000000  0.15000000       0.006
   0.50000000  0.20000000  0.15000000       0.003
   0.25000000  0.25000000  0.15000000       0.003
   0.30000000  0.25000000  0.15000000       0.006
   0.35000000  0.25000000  0.15000000       0.006
   0.40000000  0.25000000  0.15000000       0.006
   0.45000000  0.25000000  0.15000000       0.006
   0.50000000  0.25000000  0.15000000       0.003
   0.30000000  0.30000000  0.15000000       0.003
   0.35000000  0.30000000  0.15000000       0.006
   0.40000000  0.30000000  0.15000000       0.006
   0.45000000  0.30000000  0.15000000       0.006
   0.50000000  0.30000000  0.15000000       0.003
   0.35000000  0.35000000  0.15000000       0.003
   0.40000000  0.35000000  0.15000000       0.006
   0.45000000  0.35000000  0.15000000       0.006
   0.50000000  0.35000000  0.15000000       0.003
   0.40000000  0.40000000  0.15000000       0.003
   0.45000000  0.40000000  0.15000000       0.006
   0.50000000  0.40000000  0.15000000       0.003
   0.45000000  0.45000000  0.15000000       0.003
   0.50000000  0.45000000  0.15000000       0.003
   0.50000000  0.50000000  0.15000000       0.001
   0.20000000  0.20000000  0.20000000       0.001
   0.25000000  0.20000000  0.20000000       0.003
   0.30000000  0.20000000  0.20000000       0.003
   0.35000000  0.20000000  0.20000000       0.003
   0.40000000  0.20000000  0.20000000       0.003
   0.45000000  0.20000000  0.20000000       0.003
   0.50000000  0.20000000  0.20000000       0.002
   0.25000000  0.25000000  0.20000000       0.003
   0.30000000  0.25000000  0.20000000       0.006
   0.35000000  0.25000000  0.20000000       0.006
   0.40000000  0.25000000  0.20000000       0.006
   0.45000000  0.25000000  0.20000000       0.006
   0.50000000  0.25000000  0.20000000       0.003
   0.30000000  0.30000000  0.20000000       0.003
   0.35000000  0.30000000  0.20000000       0.006
   0.40000000  0.30000000  0.20000000       0.006
   0.45000000  0.30000000  0.20000000       0.006
   0.50000000  0.30000000  0.20000000       0.003
   0.35000000  0.35000000  0.20000000       0.003
   0.40000000  0.35000000  0.20000000       0.006
   0.45000000  0.35000000  0.20000000       0.006
   0.50000000  0.35000000  0.20000000       0.003
   0.40000000  0.40000000  0.20000000       0.003
   0.45000000  0.40000000  0.20000000       0.006
   0.50000000  0.40000000  0.20000000       0.003
   0.45000000  0.45000000  0.20000000       0.003
   0.50000000  0.45000000  0.20000000       0.003
   0.50000000  0.50000000  0.20000000       0.001
   0.25000000  0.25000000  0.25000000       0.001
   0.30000000  0.25000000  0.25000000       0.003
   0.35000000  0.25000000  0.25000000       0.003
   0.40000000  0.25000000  0.25000000       0.003
   0.45000000  0.25000000  0.25000000       0.003
   0.50000000  0.25000000  0.25000000       0.002
   0.30000000  0.30000000  0.25000000       0.003
   0.35000000  0.30000000  0.25000000       0.006
   0.40000000  0.30000000  0.25000000       0.006
   0.45000000  0.30000000  0.25000000       0.006
   0.50000000  0.30000000  0.25000000       0.003
   0.35000000  0.35000000  0.25000000       0.003
   0.40000000  0.35000000  0.25000000       0.006
   0.45000000  0.35000000  0.25000000       0.006
   0.50000000  0.35000000  0.25000000       0.003
   0.40000000  0.40000000  0.25000000       0.003
   0.45000000  0.40000000  0.25000000       0.006
   0.50000000  0.40000000  0.25000000       0.003
   0.45000000  0.45000000  0.25000000       0.003
   0.50000000  0.45000000  0.25000000       0.003
   0.50000000  0.50000000  0.25000000       0.001
   0.30000000  0.30000000  0.30000000       0.001
   0.35000000  0.30000000  0.30000000       0.003
   0.40000000  0.30000000  0.30000000       0.003
   0.45000000  0.30000000  0.30000000       0.003
   0.50000000  0.30000000  0.30000000       0.002
   0.35000000  0.35000000  0.30000000       0.003
   0.40000000  0.35000000  0.30000000       0.006
   0.45000000  0.35000000  0.30000000       0.006
   0.50000000  0.35000000  0.30000000       0.003
   0.40000000  0.40000000  0.30000000       0.003
   0.45000000  0.40000000  0.30000000       0.006
   0.50000000  0.40000000  0.30000000       0.003
   0.45000000  0.45000000  0.30000000       0.003
   0.50000000  0.45000000  0.30000000       0.003
   0.50000000  0.50000000  0.30000000       0.001
   0.35000000  0.35000000  0.35000000       0.001
   0.40000000  0.35000000  0.35000000       0.003
   0.45000000  0.35000000  0.35000000       0.003
   0.50000000  0.35000000  0.35000000       0.002
   0.40000000  0.40000000  0.35000000       0.003
   0.45000000  0.40000000  0.35000000       0.006
   0.50000000  0.40000000  0.35000000       0.003
   0.45000000  0.45000000  0.35000000       0.003
   0.50000000  0.45000000  0.35000000       0.003
   0.50000000  0.50000000  0.35000000       0.001
   0.40000000  0.40000000  0.40000000       0.001
   0.45000000  0.40000000  0.40000000       0.003
   0.50000000  0.40000000  0.40000000       0.002
   0.45000000  0.45000000  0.40000000       0.003
   0.50000000  0.45000000  0.40000000       0.003
   0.50000000  0.50000000  0.40000000       0.001
   0.45000000  0.45000000  0.45000000       0.001
   0.50000000  0.45000000  0.45000000       0.002
   0.50000000  0.50000000  0.45000000       0.001
   0.50000000  0.50000000  0.50000000       0.000
 
 position of ions in fractional coordinates (direct lattice) 
   0.00000000  0.00000000  0.00000000
   0.00000000  0.50000000  0.50000000
   0.50000000  0.00000000  0.50000000
   0.50000000  0.50000000  0.00000000
 
 position of ions in cartesian coordinates  (Angst):
   0.00000000  0.00000000  0.00000000
   0.00000000  2.02035469  2.02035469
   2.02035469  0.00000000  2.02035469
   2.02035469  2.02035469  0.00000000
 


--------------------------------------------------------------------------------------------------------


 k-point  1 :   0.0000 0.0000 0.0000  plane waves:    2205
 k-point  2 :   0.0500 0.0000 0.0000  plane waves:    2169
 k-point  3 :   0.1000 0.0000 0.0000  plane waves:    2184
 k-point  4 :   0.1500 0.0000 0.0000  plane waves:    2200
 k-point  5 :   0.2000 0.0000 0.0000  plane waves:    2204
 k-point  6 :   0.2500 0.0000 0.0000  plane waves:    2208
 k-point  7 :   0.3000 0.0000 0.0000  plane waves:    2208
 k-point  8 :   0.3500 0.0000 0.0000  plane waves:    2196
 k-point  9 :   0.4000 0.0000 0.0000  plane waves:    2184
 k-point 10 :   0.4500 0.0000 0.0000  plane waves:    2188
 k-point 11 :   0.5000 0.0000 0.0000  plane waves:    2168
 k-point 12 :   0.0500 0.0500 0.0000  plane waves:    2179
 k-point 13 :   0.1000 0.0500 0.0000  plane waves:    2187
 k-point 14 :   0.1500 0.0500 0.0000  plane waves:    2196
 k-point 15 :   0.2000 0.0500 0.0000  plane waves:    2196
 k-point 16 :   0.2500 0.0500 0.0000  plane waves:    2194
 k-point 17 :   0.3000 0.0500 0.0000  plane waves:    2205
 k-point 18 :   0.3500 0.0500 0.0000  plane waves:    2200
 k-point 19 :   0.4000 0.0500 0.0000  plane waves:    2194
 k-point 20 :   0.4500 0.0500 0.0000  plane waves:    2195
 k-point 21 :   0.5000 0.0500 0.0000  plane waves:    2198
 k-point 22 :   0.1000 0.1000 0.0000  plane waves:    2189
 k-point 23 :   0.1500 0.1000 0.0000  plane waves:    2193
 k-point 24 :   0.2000 0.1000 0.0000  plane waves:    2196
 k-point 25 :   0.2500 0.1000 0.0000  plane waves:    2205
 k-point 26 :   0.3000 0.1000 0.0000  plane waves:    2201
 k-point 27 :   0.3500 0.1000 0.0000  plane waves:    2199
 k-point 28 :   0.4000 0.1000 0.0000  plane waves:    2194
 k-point 29 :   0.4500 0.1000 0.0000  plane waves:    2191
 k-point 30 :   0.5000 0.1000 0.0000  plane waves:    2192
 k-point 31 :   0.1500 0.1500 0.0000  plane waves:    2191
 k-point 32 :   0.2000 0.1500 0.0000  plane waves:    2195
 k-point 33 :   0.2500 0.1500 0.0000  plane waves:    2204
 k-point 34 :   0.3000 0.1500 0.0000  plane waves:    2198
 k-point 35 :   0.3500 0.1500 0.0000  plane waves:    2202
 k-point 36 :   0.4000 0.1500 0.0000  plane waves:    2198
 k-point 37 :   0.4500 0.1500 0.0000  plane waves:    2195
 k-point 38 :   0.5000 0.1500 0.0000  plane waves:    2184
 k-point 39 :   0.2000 0.2000 0.0000  plane waves:    2205
 k-point 40 :   0.2500 0.2000 0.0000  plane waves:    2204
 k-point 41 :   0.3000 0.2000 0.0000  plane waves:    2196
[...]
     23      23.2336      0.00000
     24      24.2520      0.00000

 k-point   105 :       0.4500    0.2500    0.0500
  band No.  band energies     occupation 
      1      -0.7281      1.00000
      2       0.1603      1.00000
      3       3.6520      1.00000
      4       4.5107      1.00000
      5       6.9130      0.99998
      6       7.7507      0.93189
      7       9.1658      0.00001
      8       9.9927      0.00000
      9      11.0951      0.00000
     10      11.9291      0.00000
     11      12.3838      0.00000
     12      13.1714      0.00000
     13      13.2661      0.00000
     14      14.0818      0.00000
     15      15.6334      0.00000
     16      18.0047      0.00000
     17      19.5192      0.00000
     18      19.9323      0.00000
     19      20.2765      0.00000
     20      21.9344      0.00000
     21      22.2052      0.00000
     22      22.5506      0.00000
     23      22.8462      0.00000
     24      24.6130      0.00000

 k-point   106 :       0.5000    0.2500    0.0500
  band No.  band energies     occupation 
      1      -0.3054      1.00000
      2      -0.3054      1.00000
      3       4.0609      1.00000
      4       4.0609      1.00000
      5       7.3109      0.99910
      6       7.3109      0.99910
      7       9.5618      0.00000
      8       9.5618      0.00000
      9      11.4917      0.00000
     10      11.4917      0.00000
     11      12.7586      0.00000
     12      12.7586      0.00000
     13      13.6571      0.00000
     14      13.6571      0.00000
     15      16.8081      0.00000
     16      16.8081      0.00000
     17      19.8848      0.00000
     18      19.8848      0.00000
     19      21.0813      0.00000
     20      21.0813      0.00000
     21      22.2364      0.00000
     22      22.2364      0.00000
     23      23.9773      0.00000
     24      23.9773      0.00000

 k-point   107 :       0.3000    0.3000    0.0500
  band No.  band energies     occupation 
      1      -1.4879      1.00000
      2       2.0489      1.00000
      3       2.0489      1.00000
      4       5.4810      1.00000
      5       6.2086      1.00000
      6       8.4513      0.01225
      7       9.5483      0.00000
      8       9.5483      0.00000
      9      11.6905      0.00000
     10      11.6905      0.00000
     11      12.5771      0.00000
     12      12.5771      0.00000
     13      12.8847      0.00000
     14      15.0052      0.00000
     15      15.0174      0.00000
     16      16.7366      0.00000
     17      19.6669      0.00000
     18      19.6669      0.00000
     19      21.1404      0.00000
     20      21.8876      0.00000
     21      22.0729      0.00000
     22      22.0729      0.00000
     23      23.1414      0.00000
     24      23.9342      0.00000

 k-point   108 :       0.3500    0.3000    0.0500
  band No.  band energies     occupation 
      1      -1.1969      1.00000
      2       1.4595      1.00000
      3       2.3326      1.00000
      4       4.9170      1.00000
      5       6.4741      1.00000
      6       8.7267      0.00079
      7       8.9857      0.00006
      8       9.8220      0.00000
      9      11.1994      0.00000
     10      12.0201      0.00000
     11      12.3258      0.00000
     12      12.7910      0.00000
     13      13.6042      0.00000
     14      14.4805      0.00000
     15      14.9471      0.00000
     16      17.3458      0.00000
     17      19.9231      0.00000
     18      20.4041      0.00000
     19      20.7425      0.00000
     20      21.8770      0.00000
     21      22.2836      0.00000
     22      22.9011      0.00000
     23      22.9312      0.00000
     24      23.9660      0.00000

 k-point   109 :       0.4000    0.3000    0.0500
  band No.  band energies     occupation 
      1      -0.8618      1.00000
      2       0.9108      1.00000
      3       2.6593      1.00000
      4       4.3854      1.00000
      5       6.7873      1.00000
      6       8.4634      0.01087
      7       9.0447      0.00003
      8      10.1367      0.00000
      9      10.7055      0.00000
     10      11.8066      0.00000
     11      12.3489      0.00000
     12      13.0779      0.00000
     13      13.9859      0.00000
     14      14.5883      0.00000
     15      14.7051      0.00000
     16      18.3146      0.00000
     17      19.3451      0.00000
     18      20.2148      0.00000
     19      21.6048      0.00000
     20      21.8368      0.00000
     21      22.5135      0.00000
     22      22.8556      0.00000
     23      22.9509      0.00000
     24      23.8518      0.00000

 k-point   110 :       0.4500    0.3000    0.0500
  band No.  band energies     occupation 
      1      -0.4831      1.00000
      2       0.4037      1.00000
      3       3.0284      1.00000
      4       3.8923      1.00000
      5       7.1435      0.99983
      6       7.9820      0.57518
      7       9.4036      0.00000
      8      10.2369      0.00000
      9      10.4927      0.00000
     10      11.3278      0.00000
     11      12.7061      0.00000
     12      13.4109      0.00000
     13      13.5244      0.00000
     14      14.1798      0.00000
     15      15.8450      0.00000
     16      18.1871      0.00000
     17      19.4021      0.00000
     18      20.5387      0.00000
     19      21.2530      0.00000
     20      21.6999      0.00000
     21      22.7486      0.00000
     22      23.0207      0.00000
     23      23.0294      0.00000
     24      23.7683      0.00000

 k-point   111 :       0.5000    0.3000    0.0500
  band No.  band energies     occupation 
      1      -0.0611      1.00000
      2      -0.0611      1.00000
      3       3.4397      1.00000
      4       3.4397      1.00000
      5       7.5419      0.99102
      6       7.5419      0.99102
      7       9.8017      0.00000
      8       9.8017      0.00000
      9      10.8897      0.00000
     10      10.8897      0.00000
     11      13.0976      0.00000
     12      13.0976      0.00000
     13      13.7812      0.00000
     14      13.7812      0.00000
     15      17.0107      0.00000
     16      17.0107      0.00000
     17      20.5435      0.00000
     18      20.5435      0.00000
     19      20.8887      0.00000
     20      20.8887      0.00000
     21      22.9519      0.00000
     22      22.9519      0.00000
     23      23.8934      0.00000
     24      23.8934      0.00000

 k-point   112 :       0.3500    0.3500    0.0500
  band No.  band energies     occupation 
      1      -0.9065      1.00000
      2       1.7445      1.00000
      3       1.7445      1.00000
      4       4.3435      1.00000
      5       6.7454      1.00000
      6       9.0038      0.00005
      7       9.2591      0.00000
      8       9.2591      0.00000
      9      11.4927      0.00000
     10      11.4927      0.00000
     11      11.7657      0.00000
     12      13.8525      0.00000
     13      13.8525      0.00000
     14      13.9532      0.00000
     15      15.5231      0.00000
     16      17.3125      0.00000
     17      20.1594      0.00000
     18      20.9916      0.00000
     19      20.9916      0.00000
     20      22.1696      0.00000
     21      22.4057      0.00000
     22      23.0224      0.00000
     23      23.0224      0.00000
     24      24.0309      0.00000

 k-point   113 :       0.4000    0.3500    0.0500
  band No.  band energies     occupation 
      1      -0.5721      1.00000
      2       1.1970      1.00000
      3       2.0726      1.00000
      4       3.8077      1.00000
      5       7.0597      0.99993
      6       8.7366      0.00071
      7       9.3225      0.00000
      8       9.5738      0.00000
      9      10.9891      0.00000
     10      11.2456      0.00000
     11      11.8141      0.00000
     12      13.4558      0.00000
     13      14.1444      0.00000
     14      14.9564      0.00000
     15      15.5008      0.00000
     16      17.9488      0.00000
     17      19.4157      0.00000
     18      21.2721      0.00000
     19      21.9438      0.00000
     20      22.0355      0.00000
     21      22.4521      0.00000
     22      22.4784      0.00000
     23      22.9480      0.00000
     24      23.8634      0.00000

 k-point   114 :       0.4500    0.3500    0.0500
  band No.  band energies     occupation 
      1      -0.1942      1.00000
      2       0.6909      1.00000
      3       2.4435      1.00000
      4       3.3117      1.00000
      5       7.4164      0.99742
      6       8.2551      0.08106
      7       9.6819      0.00000
      8       9.9299      0.00000
      9      10.5171      0.00000
     10      10.7660      0.00000
     11      12.1703      0.00000
     12      12.9917      0.00000
     13      14.4722      0.00000
     14      15.1906      0.00000
     15      16.0889      0.00000
     16      18.3697      0.00000
     17      18.9427      0.00000
     18      21.2124      0.00000
     19      21.5761      0.00000
     20      22.0174      0.00000
     21      22.3104      0.00000
     22      22.6876      0.00000
     23      23.2411      0.00000
     24      23.9454      0.00000

 k-point   115 :       0.5000    0.3500    0.0500
  band No.  band energies     occupation 
      1       0.2270      1.00000
      2       0.2270      1.00000
      3       2.8567      1.00000
      4       2.8567      1.00000
      5       7.8149      0.87800
      6       7.8149      0.87800
      7      10.0806      0.00000
      8      10.0806      0.00000
      9      10.3274      0.00000
     10      10.3274      0.00000
     11      12.5629      0.00000
     12      12.5629      0.00000
     13      14.8272      0.00000
     14      14.8272      0.00000
     15      17.2358      0.00000
     16      17.2358      0.00000
     17      20.0550      0.00000
     18      20.0550      0.00000
     19      21.8800      0.00000
     20      21.8800      0.00000
     21      22.3988      0.00000
     22      22.3988      0.00000
     23      24.1259      0.00000
     24      24.1261      0.00000

 k-point   116 :       0.4000    0.4000    0.0500
  band No.  band energies     occupation 
      1      -0.2386      1.00000
      2       1.5264      1.00000
      3       1.5264      1.00000
      4       3.2689      1.00000
      5       7.3745      0.99830
      6       9.0513      0.00003
      7       9.0513      0.00003
      8       9.6414      0.00000
      9      10.7247      0.00000
     10      11.3082      0.00000
     11      11.3082      0.00000
     12      12.9558      0.00000
     13      15.2420      0.00000
     14      15.2420      0.00000
     15      16.1067      0.00000
     16      17.9615      0.00000
     17      19.2080      0.00000
     18      21.2226      0.00000
     19      21.9000      0.00000
     20      21.9000      0.00000
     21      22.4209      0.00000
     22      22.4209      0.00000
     23      23.0240      0.00000
     24      24.5574      0.00000

 k-point   117 :       0.4500    0.4000    0.0500
  band No.  band energies     occupation 
      1       0.1385      1.00000
      2       1.0215      1.00000
      3       1.8988      1.00000
      4       2.7706      1.00000
      5       7.7313      0.94321
      6       8.5699      0.00377
      7       9.4077      0.00000
      8      10.0006      0.00000
      9      10.2446      0.00000
     10      10.8356      0.00000
     11      11.6646      0.00000
     12      12.4894      0.00000
     13      15.5535      0.00000
     14      16.1326      0.00000
     15      16.3570      0.00000
     16      18.4863      0.00000
     17      18.6239      0.00000
     18      20.7705      0.00000
     19      21.0428      0.00000
     20      21.5341      0.00000
     21      22.6770      0.00000
     22      23.1248      0.00000
     23      23.4819      0.00000
     24      24.7415      0.00000

 k-point   118 :       0.5000    0.4000    0.0500
  band No.  band energies     occupation 
      1       0.5587      1.00000
      2       0.5587      1.00000
      3       2.3137      1.00000
      4       2.3137      1.00000
      5       8.1298      0.23589
      6       8.1298      0.23589
      7       9.8055      0.00000
      8       9.8055      0.00000
      9      10.3991      0.00000
     10      10.3991      0.00000
     11      12.0585      0.00000
     12      12.0585      0.00000
     13      15.8714      0.00000
     14      15.8714      0.00000
     15      17.4630      0.00000
     16      17.4630      0.00000
     17      19.6398      0.00000
     18      19.6398      0.00000
     19      21.2185      0.00000
     20      21.2185      0.00000
     21      22.9427      0.00000
     22      22.9427      0.00000
     23      24.5598      0.00000
     24      24.5598      0.00000

 k-point   119 :       0.4500    0.4500    0.0500
  band No.  band energies     occupation 
      1       0.5146      1.00000
      2       1.3952      1.00000
      3       1.3952      1.00000
      4       2.2704      1.00000
      5       8.0880      0.31919
      6       8.9264      0.00011
      7       8.9264      0.00011
      8       9.7639      0.00000
      9      10.3592      0.00000
     10      11.1927      0.00000
     11      11.1927      0.00000
     12      12.0207      0.00000
     13      16.6294      0.00000
     14      16.6294      0.00000
     15      16.7682      0.00000
     16      18.3212      0.00000
     17      18.6817      0.00000
     18      20.3188      0.00000
     19      20.4016      0.00000
     20      20.4016      0.00000
     21      23.7133      0.00000
     22      23.7133      0.00000
     23      23.7218      0.00000
     24      25.3366      0.00000

 k-point   120 :       0.5000    0.4500    0.0500
  band No.  band energies     occupation 
      1       0.9336      1.00000
      2       0.9336      1.00000
      3       1.8117      1.00000
      4       1.8117      1.00000
      5       8.4865      0.00865
      6       8.4865      0.00865
      7       9.3245      0.00000
      8       9.3245      0.00000
      9      10.7570      0.00000
     10      10.7570      0.00000
     11      11.5880      0.00000
     12      11.5880      0.00000
     13      16.8417      0.00000
     14      16.8417      0.00000
     15      17.6270      0.00000
     16      17.6270      0.00000
     17      19.3684      0.00000
     18      19.3684      0.00000
     19      20.1773      0.00000
     20      20.1773      0.00000
     21      23.8591      0.00000
     22      23.8591      0.00000
     23      24.6676      0.00000
     24      24.6676      0.00000

 k-point   121 :       0.5000    0.5000    0.0500
  band No.  band energies     occupation 
      1       1.3515      1.00000
      2       1.3515      1.00000
      3       1.3515      1.00000
      4       1.3515      1.00000
      5       8.8847      0.00016
      6       8.8847      0.00016
      7       8.8847      0.00016
      8       8.8847      0.00016
      9      11.1537      0.00000
     10      11.1537      0.00000
     11      11.1537      0.00000
     12      11.1537      0.00000
     13      17.5068      0.00000
     14      17.5068      0.00000
     15      17.5068      0.00000
     16      17.5068      0.00000
     17      19.4693      0.00000
     18      19.4693      0.00000
     19      19.4693      0.00000
     20      19.4693      0.00000
     21      24.4939      0.00000
     22      24.4939      0.00000
     23      24.4939      0.00000
     24      24.4939      0.00000

 k-point   122 :       0.1000    0.1000    0.1000
  band No.  band energies     occupation 
      1      -2.8613      1.00000
      2       4.1408      1.00000
      3       4.1408      1.00000
      4       4.1408      1.00000
      5       7.8374      0.85184
      6       7.8374      0.85184
      7       7.8374      0.85184
      8      10.8560      0.00000
      9      10.8560      0.00000
     10      10.8560      0.00000
     11      13.8324      0.00000
     12      13.8324      0.00000
     13      13.8324      0.00000
     14      15.0664      0.00000
     15      15.0664      0.00000
     16      15.0664      0.00000
     17      17.3359      0.00000
     18      18.7166      0.00000
     19      18.7166      0.00000
     20      18.7166      0.00000
     21      19.9025      0.00000
     22      19.9025      0.00000
     23      22.7754      0.00000
     24      23.2505      0.00000

 k-point   123 :       0.1500    0.1000    0.1000
  band No.  band energies     occupation 
      1      -2.7482      1.00000
      2       3.4171      1.00000
      3       4.2476      1.00000
      4       4.2476      1.00000
      5       7.9397      0.67378
      6       7.9397      0.67378
      7       8.7541      0.00060
      8      10.1666      0.00000
      9      10.1666      0.00000
     10      10.9632      0.00000
     11      13.5866      0.00000
     12      13.5866      0.00000
     13      13.9287      0.00000
     14      15.1739      0.00000
     15      15.6224      0.00000
     16      15.6224      0.00000
     17      16.6650      0.00000
     18      18.8144      0.00000
     19      19.2772      0.00000
     20      19.4746      0.00000
     21      19.4746      0.00000
     22      20.0317      0.00000
     23      22.8863      0.00000
     24      23.0686      0.00000

 k-point   124 :       0.2000    0.1000    0.1000
  band No.  band energies     occupation 
      1      -2.5901      1.00000
      2       2.7149      1.00000
      3       4.3969      1.00000
      4       4.3969      1.00000
      5       8.0782      0.34080
      6       8.0782      0.34080
      7       9.5038      0.00000
      8       9.5038      0.00000
      9       9.7236      0.00000
     10      11.1160      0.00000
     11      13.0649      0.00000
     12      13.0649      0.00000
     13      14.0635      0.00000
     14      15.3242      0.00000
     15      16.0151      0.00000
     16      16.4906      0.00000
     17      16.4906      0.00000
     18      18.6646      0.00000
     19      18.9506      0.00000
     20      19.8142      0.00000
     21      20.3238      0.00000
     22      20.3238      0.00000
     23      22.6472      0.00000
     24      23.5055      0.00000

 k-point   125 :       0.2500    0.1000    0.1000
  band No.  band energies     occupation 
      1      -2.3870      1.00000
      2       2.0457      1.00000
      3       4.5887      1.00000
      4       4.5887      1.00000
      5       8.2301      0.10173
      6       8.2301      0.10173
      7       8.9011      0.00014
      8       8.9011      0.00014
      9      10.7185      0.00000
     10      11.3296      0.00000
     11      12.4984      0.00000
     12      12.4984      0.00000
     13      14.2368      0.00000
     14      15.3947      0.00000
     15      15.5169      0.00000
     16      17.4597      0.00000
     17      17.4597      0.00000
     18      18.0793      0.00000
     19      19.1244      0.00000
     20      19.4061      0.00000
     21      21.2297      0.00000
     22      21.2297      0.00000
     23      22.1994      0.00000
     24      22.9588      0.00000

 k-point   126 :       0.3000    0.1000    0.1000
  band No.  band energies     occupation 
      1      -2.1392      1.00000
      2       1.4139      1.00000
      3       4.8227      1.00000
      4       4.8227      1.00000
      5       8.1256      0.24355
      6       8.1256      0.24355
      7       8.6318      0.00203
      8       8.6318      0.00203
      9      11.4478      0.00000
     10      11.8902      0.00000
     11      11.9399      0.00000
     12      11.9399      0.00000
     13      14.4487      0.00000
     14      14.8080      0.00000
     15      15.7516      0.00000
     16      17.5268      0.00000
     17      18.4866      0.00000
     18      18.4866      0.00000
     19      18.9276      0.00000
     20      19.3346      0.00000
     21      21.3540      0.00000
     22      22.1464 